<?xml version="1.0"?>
<VTKFile byte_order="LittleEndian" version="1.0" type="ImageData">
<ImageData Origin="0.0000000000000000e+00 0.0000000000000000e+00 0.0000000000000000e+00" WholeExtent="0 63 0 63 0 63" Spacing="5.0793653726577759e-01 5.0793653726577759e-01 5.0793653726577759e-01">
<Piece Extent="0 63 0 63 0 63">
<PointData Scalars="wall">
<DataArray type="Float64" Name="wall" NumberOfComponents="1" format="ascii"/>-6.361102e+00
-6.363181e+00
-6.365212e+00
-6.367169e+00
-6.369049e+00
-6.370823e+00
-6.372493e+00
-6.374007e+00
-6.375393e+00
-6.376626e+00
-6.377694e+00
-6.378600e+00
-6.379339e+00
-6.379883e+00
-6.380256e+00
-6.380440e+00
-6.380442e+00
-6.380260e+00
-6.379880e+00
-6.379340e+00
-6.378605e+00
-6.377695e+00
-6.376640e+00
-6.375391e+00
-6.374016e+00
-6.372482e+00
-6.370828e+00
-6.369057e+00
-6.367184e+00
-6.365221e+00
-6.363183e+00
-6.361103e+00
-6.358997e+00
-6.356863e+00
-6.354751e+00
-6.352685e+00
-6.350659e+00
-6.348732e+00
-6.346879e+00
-6.345120e+00
-6.343510e+00
-6.342042e+00
-6.340752e+00
-6.339653e+00
-6.338743e+00
-6.338042e+00
-6.337590e+00
-6.337373e+00
-6.337375e+00
-6.337605e+00
-6.338066e+00
-6.338753e+00
-6.339652e+00
-6.340753e+00
-6.342039e+00
-6.343525e+00
-6.345139e+00
-6.346882e+00
-6.348731e+00
-6.350662e+00
-6.352673e+00
-6.354748e+00
-6.356858e+00
-6.358996e+00
-6.354223e+00
-6.356625e+00
-6.358960e+00
-6.361228e+00
-6.363385e+00
-6.365432e+00
-6.367350e+00
-6.369108e+00
-6.370698e+00
-6.372125e+00
-6.373325e+00
-6.374409e+00
-6.375258e+00
-6.375898e+00
-6.376321e+00
-6.376543e+00
-6.376540e+00
-6.376314e+00
-6.375899e+00
-6.375258e+00
-6.374412e+00
-6.373364e+00
-6.372131e+00
-6.370710e+00
-6.369098e+00
-6.367344e+00
-6.365432e+00
-6.363391e+00
-6.361230e+00
-6.358959e+00
-6.356626e+00
-6.354224e+00
-6.351794e+00
-6.349344e+00
-6.346911e+00
-6.344512e+00
-6.342196e+00
-6.339969e+00
-6.337837e+00
-6.335850e+00
-6.333995e+00
-6.332322e+00
-6.330847e+00
-6.329582e+00
-6.328534e+00
-6.327763e+00
-6.327250e+00
-6.326977e+00
-6.326977e+00
-6.327247e+00
-6.327771e+00
-6.328555e+00
-6.329586e+00
-6.330842e+00
-6.332312e+00
-6.333992e+00
-6.335835e+00
-6.337848e+00
-6.339957e+00
-6.342185e+00
-6.344522e+00
-6.346914e+00
-6.349343e+00
-6.351777e+00
-6.346435e+00
-6.349173e+00
-6.351851e+00
-6.354442e+00
-6.356922e+00
-6.359266e+00
-6.361456e+00
-6.363469e+00
-6.365308e+00
-6.366942e+00
-6.368318e+00
-6.369528e+00
-6.370531e+00
-6.371264e+00
-6.371758e+00
-6.371999e+00
-6.372009e+00
-6.371751e+00
-6.371277e+00
-6.370543e+00
-6.369568e+00
-6.368363e+00
-6.366939e+00
-6.365320e+00
-6.363468e+00
-6.361461e+00
-6.359264e+00
-6.356921e+00
-6.354445e+00
-6.351848e+00
-6.349172e+00
-6.346434e+00
-6.343646e+00
-6.340852e+00
-6.338076e+00
-6.335346e+00
-6.332675e+00
-6.330118e+00
-6.327696e+00
-6.325427e+00
-6.323329e+00
-6.321436e+00
-6.319729e+00
-6.318302e+00
-6.317149e+00
-6.316257e+00
-6.315663e+00
-6.315366e+00
-6.315361e+00
-6.315666e+00
-6.316262e+00
-6.317165e+00
-6.318325e+00
-6.319748e+00
-6.321429e+00
-6.323325e+00
-6.325421e+00
-6.327697e+00
-6.330124e+00
-6.332677e+00
-6.335332e+00
-6.338078e+00
-6.340850e+00
-6.343646e+00
-6.337659e+00
-6.340775e+00
-6.343811e+00
-6.346759e+00
-6.349575e+00
-6.352249e+00
-6.354737e+00
-6.357043e+00
-6.359121e+00
-6.360993e+00
-6.362611e+00
-6.363949e+00
-6.365058e+00
-6.365917e+00
-6.366485e+00
-6.366763e+00
-6.366753e+00
-6.366491e+00
-6.365927e+00
-6.365083e+00
-6.363981e+00
-6.362614e+00
-6.360992e+00
-6.359120e+00
-6.357043e+00
-6.354729e+00
-6.352245e+00
-6.349576e+00
-6.346763e+00
-6.343822e+00
-6.340773e+00
-6.337654e+00
-6.334475e+00
-6.331331e+00
-6.328182e+00
-6.325065e+00
-6.322046e+00
-6.319146e+00
-6.316390e+00
-6.313814e+00
-6.311446e+00
-6.309284e+00
-6.307399e+00
-6.305797e+00
-6.304482e+00
-6.303480e+00
-6.302809e+00
-6.302466e+00
-6.302467e+00
-6.302792e+00
-6.303462e+00
-6.304492e+00
-6.305797e+00
-6.307417e+00
-6.309306e+00
-6.311444e+00
-6.313815e+00
-6.316383e+00
-6.319153e+00
-6.322052e+00
-6.325064e+00
-6.328168e+00
-6.331318e+00
-6.334491e+00
-6.327852e+00
-6.331363e+00
-6.334800e+00
-6.338126e+00
-6.341308e+00
-6.344320e+00
-6.347140e+00
-6.349731e+00
-6.352099e+00
-6.354217e+00
-6.356045e+00
-6.357591e+00
-6.358821e+00
-6.359794e+00
-6.360425e+00
-6.360753e+00
-6.360751e+00
-6.360443e+00
-6.359786e+00
-6.358849e+00
-6.357593e+00
-6.356047e+00
-6.354210e+00
-6.352098e+00
-6.349758e+00
-6.347131e+00
-6.344323e+00
-6.341303e+00
-6.338122e+00
-6.334801e+00
-6.331372e+00
-6.327849e+00
-6.324290e+00
-6.320714e+00
-6.317153e+00
-6.313647e+00
-6.310261e+00
-6.306986e+00
-6.303894e+00
-6.300986e+00
-6.298329e+00
-6.295915e+00
-6.293797e+00
-6.291988e+00
-6.290518e+00
-6.289381e+00
-6.288628e+00
-6.288249e+00
-6.288256e+00
-6.288615e+00
-6.289395e+00
-6.290509e+00
-6.291996e+00
-6.293793e+00
-6.295921e+00
-6.298323e+00
-6.300988e+00
-6.303885e+00
-6.306998e+00
-6.310255e+00
-6.313656e+00
-6.317155e+00
-6.320714e+00
-6.324288e+00
-6.316948e+00
-6.320894e+00
-6.324730e+00
-6.328460e+00
-6.332043e+00
-6.335419e+00
-6.338576e+00
-6.341505e+00
-6.344171e+00
-6.346521e+00
-6.348595e+00
-6.350337e+00
-6.351736e+00
-6.352811e+00
-6.353525e+00
-6.353880e+00
-6.353889e+00
-6.353528e+00
-6.352808e+00
-6.351742e+00
-6.350331e+00
-6.348589e+00
-6.346527e+00
-6.344155e+00
-6.341511e+00
-6.338590e+00
-6.335411e+00
-6.332038e+00
-6.328465e+00
-6.324740e+00
-6.320892e+00
-6.316958e+00
-6.312966e+00
-6.308956e+00
-6.304977e+00
-6.301075e+00
-6.297266e+00
-6.293623e+00
-6.290139e+00
-6.286899e+00
-6.283935e+00
-6.281242e+00
-6.278873e+00
-6.276870e+00
-6.275220e+00
-6.273979e+00
-6.273130e+00
-6.272711e+00
-6.272707e+00
-6.273135e+00
-6.273963e+00
-6.275228e+00
-6.276866e+00
-6.278877e+00
-6.281241e+00
-6.283937e+00
-6.286913e+00
-6.290144e+00
-6.293619e+00
-6.297264e+00
-6.301064e+00
-6.304976e+00
-6.308952e+00
-6.312964e+00
-6.304917e+00
-6.309301e+00
-6.313586e+00
-6.317740e+00
-6.321709e+00
-6.325483e+00
-6.329008e+00
-6.332277e+00
-6.335234e+00
-6.337881e+00
-6.340174e+00
-6.342131e+00
-6.343705e+00
-6.344892e+00
-6.345705e+00
-6.346097e+00
-6.346139e+00
-6.345696e+00
-6.344897e+00
-6.343707e+00
-6.342134e+00
-6.340185e+00
-6.337876e+00
-6.335235e+00
-6.332267e+00
-6.329025e+00
-6.325444e+00
-6.321724e+00
-6.317736e+00
-6.313589e+00
-6.309305e+00
-6.304940e+00
-6.300488e+00
-6.296030e+00
-6.291621e+00
-6.287275e+00
-6.283053e+00
-6.279007e+00
-6.275159e+00
-6.271560e+00
-6.268256e+00
-6.265289e+00
-6.262663e+00
-6.260441e+00
-6.258625e+00
-6.257239e+00
-6.256312e+00
-6.255832e+00
-6.255843e+00
-6.256311e+00
-6.257231e+00
-6.258615e+00
-6.260441e+00
-6.262663e+00
-6.265278e+00
-6.268253e+00
-6.271565e+00
-6.275158e+00
-6.278999e+00
-6.283052e+00
-6.287275e+00
-6.291628e+00
-6.296041e+00
-6.300480e+00
-6.291741e+00
-6.296583e+00
-6.301328e+00
-6.305911e+00
-6.310301e+00
-6.314474e+00
-6.318381e+00
-6.321989e+00
-6.325274e+00
-6.328197e+00
-6.330760e+00
-6.332922e+00
-6.334658e+00
-6.335982e+00
-6.336865e+00
-6.337321e+00
-6.337321e+00
-6.336875e+00
-6.335979e+00
-6.334669e+00
-6.332917e+00
-6.330759e+00
-6.328203e+00
-6.325275e+00
-6.321986e+00
-6.318396e+00
-6.314472e+00
-6.310291e+00
-6.305900e+00
-6.301313e+00
-6.296577e+00
-6.291737e+00
-6.286853e+00
-6.281937e+00
-6.277059e+00
-6.272278e+00
-6.267633e+00
-6.263137e+00
-6.258923e+00
-6.254963e+00
-6.251331e+00
-6.248066e+00
-6.245169e+00
-6.242742e+00
-6.240735e+00
-6.239213e+00
-6.238192e+00
-6.237695e+00
-6.237670e+00
-6.238191e+00
-6.239207e+00
-6.240738e+00
-6.242721e+00
-6.245172e+00
-6.248053e+00
-6.251324e+00
-6.254969e+00
-6.258932e+00
-6.263158e+00
-6.267622e+00
-6.272279e+00
-6.277061e+00
-6.281949e+00
-6.286849e+00
-6.277395e+00
-6.282700e+00
-6.287891e+00
-6.292935e+00
-6.297758e+00
-6.302339e+00
-6.306636e+00
-6.310600e+00
-6.314212e+00
-6.317448e+00
-6.320255e+00
-6.322625e+00
-6.324550e+00
-6.326021e+00
-6.326988e+00
-6.327480e+00
-6.327477e+00
-6.326985e+00
-6.326012e+00
-6.324555e+00
-6.322630e+00
-6.320252e+00
-6.317440e+00
-6.314216e+00
-6.310605e+00
-6.306642e+00
-6.302348e+00
-6.297753e+00
-6.292933e+00
-6.287890e+00
-6.282711e+00
-6.277395e+00
-6.272025e+00
-6.266661e+00
-6.261315e+00
-6.256082e+00
-6.250992e+00
-6.246117e+00
-6.241484e+00
-6.237157e+00
-6.233184e+00
-6.229607e+00
-6.226458e+00
-6.223796e+00
-6.221614e+00
-6.219944e+00
-6.218855e+00
-6.218285e+00
-6.218284e+00
-6.218853e+00
-6.219960e+00
-6.221618e+00
-6.223794e+00
-6.226461e+00
-6.229601e+00
-6.233198e+00
-6.237152e+00
-6.241481e+00
-6.246109e+00
-6.250992e+00
-6.256087e+00
-6.261321e+00
-6.266644e+00
-6.272034e+00
-6.261893e+00
-6.267665e+00
-6.273322e+00
-6.278804e+00
-6.284067e+00
-6.289069e+00
-6.293746e+00
-6.298083e+00
-6.302026e+00
-6.305551e+00
-6.308622e+00
-6.311224e+00
-6.313334e+00
-6.314908e+00
-6.315990e+00
-6.316517e+00
-6.316529e+00
-6.315989e+00
-6.314921e+00
-6.313325e+00
-6.311228e+00
-6.308628e+00
-6.305547e+00
-6.302024e+00
-6.298079e+00
-6.293750e+00
-6.289081e+00
-6.284069e+00
-6.278815e+00
-6.273324e+00
-6.267741e+00
-6.261886e+00
-6.256062e+00
-6.250205e+00
-6.244409e+00
-6.238725e+00
-6.233202e+00
-6.227901e+00
-6.222870e+00
-6.218191e+00
-6.213889e+00
-6.209999e+00
-6.206588e+00
-6.203701e+00
-6.201330e+00
-6.199556e+00
-6.198345e+00
-6.197742e+00
-6.197742e+00
-6.198356e+00
-6.199552e+00
-6.201344e+00
-6.203697e+00
-6.206610e+00
-6.210007e+00
-6.213890e+00
-6.218198e+00
-6.222876e+00
-6.227901e+00
-6.233196e+00
-6.238734e+00
-6.244419e+00
-6.250201e+00
-6.256042e+00
-6.245258e+00
-6.251487e+00
-6.257594e+00
-6.263525e+00
-6.269231e+00
-6.274641e+00
-6.279708e+00
-6.284399e+00
-6.288681e+00
-6.292494e+00
-6.295836e+00
-6.298665e+00
-6.300938e+00
-6.302663e+00
-6.303839e+00
-6.304404e+00
-6.304409e+00
-6.303825e+00
-6.302670e+00
-6.300940e+00
-6.298650e+00
-6.295837e+00
-6.292499e+00
-6.288682e+00
-6.284400e+00
-6.279711e+00
-6.274655e+00
-6.269226e+00
-6.263517e+00
-6.257592e+00
-6.251494e+00
-6.245249e+00
-6.238945e+00
-6.232643e+00
-6.226389e+00
-6.220240e+00
-6.214317e+00
-6.208613e+00
-6.203198e+00
-6.198147e+00
-6.193523e+00
-6.189342e+00
-6.185696e+00
-6.182582e+00
-6.180040e+00
-6.178115e+00
-6.176842e+00
-6.176165e+00
-6.176180e+00
-6.176778e+00
-6.178117e+00
-6.180035e+00
-6.182568e+00
-6.185692e+00
-6.189350e+00
-6.193521e+00
-6.198152e+00
-6.203202e+00
-6.208602e+00
-6.214302e+00
-6.220255e+00
-6.226404e+00
-6.232639e+00
-6.238942e+00
-6.227516e+00
-6.234202e+00
-6.240770e+00
-6.247128e+00
-6.253243e+00
-6.259051e+00
-6.264498e+00
-6.269554e+00
-6.274147e+00
-6.278265e+00
-6.281858e+00
-6.284881e+00
-6.287362e+00
-6.289221e+00
-6.290460e+00
-6.291094e+00
-6.291089e+00
-6.290465e+00
-6.289214e+00
-6.287357e+00
-6.284897e+00
-6.281848e+00
-6.278264e+00
-6.274126e+00
-6.269551e+00
-6.264505e+00
-6.259043e+00
-6.253254e+00
-6.247126e+00
-6.240768e+00
-6.234205e+00
-6.227520e+00
-6.220774e+00
-6.214018e+00
-6.207308e+00
-6.200762e+00
-6.194410e+00
-6.188317e+00
-6.182538e+00
-6.177165e+00
-6.172208e+00
-6.167760e+00
-6.163868e+00
-6.160538e+00
-6.157860e+00
-6.155787e+00
-6.154413e+00
-6.153717e+00
-6.153716e+00
-6.154407e+00
-6.155741e+00
-6.157840e+00
-6.160548e+00
-6.163854e+00
-6.167763e+00
-6.172213e+00
-6.177161e+00
-6.182513e+00
-6.188319e+00
-6.194417e+00
-6.200777e+00
-6.207337e+00
-6.214015e+00
-6.220779e+00
-6.208774e+00
-6.215886e+00
-6.222862e+00
-6.229635e+00
-6.236145e+00
-6.242342e+00
-6.248160e+00
-6.253547e+00
-6.258451e+00
-6.262842e+00
-6.266673e+00
-6.269926e+00
-6.272546e+00
-6.274544e+00
-6.275887e+00
-6.276547e+00
-6.276556e+00
-6.275881e+00
-6.274548e+00
-6.272549e+00
-6.270000e+00
-6.266682e+00
-6.262844e+00
-6.258447e+00
-6.253545e+00
-6.248160e+00
-6.242335e+00
-6.236164e+00
-6.229631e+00
-6.222861e+00
-6.215891e+00
-6.208780e+00
-6.201600e+00
-6.194432e+00
-6.187321e+00
-6.180373e+00
-6.173634e+00
-6.167178e+00
-6.161057e+00
-6.155355e+00
-6.150126e+00
-6.145419e+00
-6.141274e+00
-6.137786e+00
-6.134915e+00
-6.132740e+00
-6.131282e+00
-6.130550e+00
-6.130553e+00
-6.131293e+00
-6.132706e+00
-6.134909e+00
-6.137770e+00
-6.141283e+00
-6.145426e+00
-6.150112e+00
-6.155348e+00
-6.161056e+00
-6.167169e+00
-6.173642e+00
-6.180386e+00
-6.187328e+00
-6.194434e+00
-6.201605e+00
-6.189117e+00
-6.196612e+00
-6.203970e+00
-6.211119e+00
-6.218009e+00
-6.224550e+00
-6.230704e+00
-6.236395e+00
-6.241602e+00
-6.246247e+00
-6.250318e+00
-6.253756e+00
-6.256534e+00
-6.258656e+00
-6.260071e+00
-6.260785e+00
-6.260746e+00
-6.260073e+00
-6.258651e+00
-6.256547e+00
-6.253748e+00
-6.250306e+00
-6.246250e+00
-6.241602e+00
-6.236398e+00
-6.230698e+00
-6.224545e+00
-6.218015e+00
-6.211127e+00
-6.203978e+00
-6.196604e+00
-6.189113e+00
-6.181549e+00
-6.173971e+00
-6.166510e+00
-6.159204e+00
-6.152111e+00
-6.145325e+00
-6.138904e+00
-6.132912e+00
-6.127411e+00
-6.122467e+00
-6.118148e+00
-6.114459e+00
-6.111458e+00
-6.109201e+00
-6.107672e+00
-6.106901e+00
-6.106902e+00
-6.107666e+00
-6.109160e+00
-6.111477e+00
-6.114456e+00
-6.118138e+00
-6.122480e+00
-6.127425e+00
-6.132911e+00
-6.138905e+00
-6.145319e+00
-6.152104e+00
-6.159212e+00
-6.166520e+00
-6.173997e+00
-6.181549e+00
-6.168640e+00
-6.176477e+00
-6.184171e+00
-6.191672e+00
-6.198874e+00
-6.205741e+00
-6.212185e+00
-6.218179e+00
-6.223630e+00
-6.228519e+00
-6.232784e+00
-6.236418e+00
-6.239339e+00
-6.241561e+00
-6.243059e+00
-6.243792e+00
-6.243794e+00
-6.243014e+00
-6.241560e+00
-6.239334e+00
-6.236410e+00
-6.232788e+00
-6.228512e+00
-6.223630e+00
-6.218173e+00
-6.212193e+00
-6.205746e+00
-6.198882e+00
-6.191666e+00
-6.184168e+00
-6.176472e+00
-6.168633e+00
-6.160707e+00
-6.152827e+00
-6.145041e+00
-6.137413e+00
-6.130012e+00
-6.122941e+00
-6.116238e+00
-6.110012e+00
-6.104315e+00
-6.099167e+00
-6.094679e+00
-6.090839e+00
-6.087720e+00
-6.085359e+00
-6.083762e+00
-6.082965e+00
-6.082968e+00
-6.083772e+00
-6.085352e+00
-6.087716e+00
-6.090840e+00
-6.094668e+00
-6.099170e+00
-6.104305e+00
-6.110017e+00
-6.116251e+00
-6.122939e+00
-6.130011e+00
-6.137396e+00
-6.145036e+00
-6.152841e+00
-6.160730e+00
-6.147508e+00
-6.155619e+00
-6.163609e+00
-6.171384e+00
-6.178869e+00
-6.186005e+00
-6.192716e+00
-6.198934e+00
-6.204619e+00
-6.209709e+00
-6.214158e+00
-6.217921e+00
-6.220987e+00
-6.223305e+00
-6.224851e+00
-6.225637e+00
-6.225640e+00
-6.224864e+00
-6.223273e+00
-6.220991e+00
-6.217922e+00
-6.214160e+00
-6.209709e+00
-6.204624e+00
-6.198936e+00
-6.192707e+00
-6.185997e+00
-6.178881e+00
-6.171387e+00
-6.163598e+00
-6.155621e+00
-6.147494e+00
-6.139288e+00
-6.131133e+00
-6.123061e+00
-6.115175e+00
-6.107535e+00
-6.100238e+00
-6.093331e+00
-6.086900e+00
-6.080999e+00
-6.075727e+00
-6.071077e+00
-6.067134e+00
-6.063923e+00
-6.061493e+00
-6.059858e+00
-6.059045e+00
-6.059046e+00
-6.059858e+00
-6.061499e+00
-6.063905e+00
-6.067129e+00
-6.071076e+00
-6.075716e+00
-6.081005e+00
-6.086901e+00
-6.093341e+00
-6.100229e+00
-6.107533e+00
-6.115170e+00
-6.123067e+00
-6.131139e+00
-6.139300e+00
-6.125836e+00
-6.134197e+00
-6.142404e+00
-6.150400e+00
-6.158116e+00
-6.165454e+00
-6.172370e+00
-6.178782e+00
-6.184651e+00
-6.189900e+00
-6.194500e+00
-6.198389e+00
-6.201556e+00
-6.203941e+00
-6.205561e+00
-6.206366e+00
-6.206366e+00
-6.205555e+00
-6.203951e+00
-6.201527e+00
-6.198394e+00
-6.194498e+00
-6.189904e+00
-6.184646e+00
-6.178783e+00
-6.172371e+00
-6.165456e+00
-6.158111e+00
-6.150415e+00
-6.142395e+00
-6.134197e+00
-6.125824e+00
-6.117435e+00
-6.109063e+00
-6.100791e+00
-6.092714e+00
-6.084900e+00
-6.077419e+00
-6.070373e+00
-6.063813e+00
-6.057786e+00
-6.052376e+00
-6.047654e+00
-6.043620e+00
-6.040362e+00
-6.037874e+00
-6.036207e+00
-6.035359e+00
-6.035365e+00
-6.036205e+00
-6.037870e+00
-6.040327e+00
-6.043621e+00
-6.047643e+00
-6.052381e+00
-6.057785e+00
-6.063805e+00
-6.070368e+00
-6.077432e+00
-6.084903e+00
-6.092709e+00
-6.100802e+00
-6.109067e+00
-6.117449e+00
-6.103881e+00
-6.112378e+00
-6.120728e+00
-6.128879e+00
-6.136743e+00
-6.144228e+00
-6.151288e+00
-6.157846e+00
-6.163836e+00
-6.169213e+00
-6.173910e+00
-6.177890e+00
-6.181122e+00
-6.183583e+00
-6.185224e+00
-6.186061e+00
-6.186048e+00
-6.185237e+00
-6.183580e+00
-6.181132e+00
-6.177887e+00
-6.173906e+00
-6.169206e+00
-6.163836e+00
-6.157848e+00
-6.151293e+00
-6.144239e+00
-6.136731e+00
-6.128891e+00
-6.120730e+00
-6.112379e+00
-6.103864e+00
-6.095334e+00
-6.086831e+00
-6.078445e+00
-6.070245e+00
-6.062327e+00
-6.054755e+00
-6.047621e+00
-6.040970e+00
-6.034894e+00
-6.029427e+00
-6.024646e+00
-6.020584e+00
-6.017281e+00
-6.014780e+00
-6.013103e+00
-6.012254e+00
-6.012257e+00
-6.013099e+00
-6.014782e+00
-6.017271e+00
-6.020584e+00
-6.024639e+00
-6.029423e+00
-6.034881e+00
-6.040968e+00
-6.047626e+00
-6.054756e+00
-6.062324e+00
-6.070233e+00
-6.078427e+00
-6.086835e+00
-6.095342e+00
-6.081813e+00
-6.090346e+00
-6.098777e+00
-6.106990e+00
-6.114914e+00
-6.122495e+00
-6.129619e+00
-6.136252e+00
-6.142317e+00
-6.147758e+00
-6.152525e+00
-6.156557e+00
-6.159834e+00
-6.162321e+00
-6.163994e+00
-6.164825e+00
-6.164830e+00
-6.163989e+00
-6.162324e+00
-6.159828e+00
-6.156552e+00
-6.152522e+00
-6.147753e+00
-6.142320e+00
-6.136254e+00
-6.129619e+00
-6.122486e+00
-6.114923e+00
-6.107003e+00
-6.098774e+00
-6.090340e+00
-6.081793e+00
-6.073214e+00
-6.064658e+00
-6.056236e+00
-6.047997e+00
-6.040040e+00
-6.032453e+00
-6.025302e+00
-6.018687e+00
-6.012595e+00
-6.007149e+00
-6.002367e+00
-5.998304e+00
-5.995003e+00
-5.992506e+00
-5.990838e+00
-5.989997e+00
-5.989993e+00
-5.990850e+00
-5.992509e+00
-5.995018e+00
-5.998281e+00
-6.002358e+00
-6.007137e+00
-6.012594e+00
-6.018677e+00
-6.025325e+00
-6.032475e+00
-6.040074e+00
-6.048005e+00
-6.056233e+00
-6.064661e+00
-6.073215e+00
-6.059853e+00
-6.068348e+00
-6.076749e+00
-6.084944e+00
-6.092854e+00
-6.100420e+00
-6.107552e+00
-6.114180e+00
-6.120251e+00
-6.125700e+00
-6.130463e+00
-6.134529e+00
-6.137814e+00
-6.140329e+00
-6.141985e+00
-6.142827e+00
-6.142827e+00
-6.141990e+00
-6.140303e+00
-6.137814e+00
-6.134529e+00
-6.130468e+00
-6.125701e+00
-6.120301e+00
-6.114183e+00
-6.107550e+00
-6.100420e+00
-6.092853e+00
-6.084957e+00
-6.076741e+00
-6.068340e+00
-6.059830e+00
-6.051287e+00
-6.042832e+00
-6.034407e+00
-6.026253e+00
-6.018378e+00
-6.010863e+00
-6.003774e+00
-5.997205e+00
-5.991145e+00
-5.985795e+00
-5.981073e+00
-5.977075e+00
-5.973833e+00
-5.971361e+00
-5.969710e+00
-5.968865e+00
-5.968873e+00
-5.969721e+00
-5.971359e+00
-5.973816e+00
-5.977065e+00
-5.981073e+00
-5.985801e+00
-5.991193e+00
-5.997203e+00
-6.003779e+00
-6.010858e+00
-6.018383e+00
-6.026252e+00
-6.034411e+00
-6.042782e+00
-6.051288e+00
-6.038219e+00
-6.046592e+00
-6.054842e+00
-6.062932e+00
-6.070746e+00
-6.078205e+00
-6.085262e+00
-6.091818e+00
-6.097834e+00
-6.103225e+00
-6.107955e+00
-6.111984e+00
-6.115245e+00
-6.117718e+00
-6.119377e+00
-6.120215e+00
-6.120220e+00
-6.119380e+00
-6.117714e+00
-6.115240e+00
-6.111977e+00
-6.107960e+00
-6.103232e+00
-6.097825e+00
-6.091817e+00
-6.085268e+00
-6.078212e+00
-6.070750e+00
-6.062928e+00
-6.054853e+00
-6.046582e+00
-6.038209e+00
-6.029811e+00
-6.021458e+00
-6.013241e+00
-6.005233e+00
-5.997528e+00
-5.990182e+00
-5.983252e+00
-5.976825e+00
-5.970951e+00
-5.965689e+00
-5.961092e+00
-5.957192e+00
-5.954024e+00
-5.951626e+00
-5.950011e+00
-5.949208e+00
-5.949196e+00
-5.950011e+00
-5.951634e+00
-5.954032e+00
-5.957188e+00
-5.961089e+00
-5.965687e+00
-5.970948e+00
-5.976821e+00
-5.983249e+00
-5.990170e+00
-5.997523e+00
-6.005236e+00
-6.013245e+00
-6.021455e+00
-6.029804e+00
-6.017159e+00
-6.025310e+00
-6.033336e+00
-6.041212e+00
-6.048820e+00
-6.056097e+00
-6.062986e+00
-6.069390e+00
-6.075261e+00
-6.080545e+00
-6.085166e+00
-6.089118e+00
-6.092302e+00
-6.094733e+00
-6.096368e+00
-6.097190e+00
-6.097187e+00
-6.096371e+00
-6.094738e+00
-6.092302e+00
-6.089107e+00
-6.085174e+00
-6.080551e+00
-6.075263e+00
-6.069389e+00
-6.062975e+00
-6.056105e+00
-6.048819e+00
-6.041200e+00
-6.033323e+00
-6.025288e+00
-6.017156e+00
-6.009009e+00
-6.000910e+00
-5.992965e+00
-5.985229e+00
-5.977776e+00
-5.970670e+00
-5.964014e+00
-5.957810e+00
-5.952158e+00
-5.947098e+00
-5.942677e+00
-5.938923e+00
-5.935886e+00
-5.933586e+00
-5.932035e+00
-5.931253e+00
-5.931257e+00
-5.932034e+00
-5.933569e+00
-5.935879e+00
-5.938934e+00
-5.942657e+00
-5.947102e+00
-5.952163e+00
-5.957807e+00
-5.964005e+00
-5.970671e+00
-5.977777e+00
-5.985221e+00
-5.992962e+00
-6.000913e+00
-6.009019e+00
-5.996957e+00
-6.004747e+00
-6.012453e+00
-6.020001e+00
-6.027305e+00
-6.034309e+00
-6.040938e+00
-6.047117e+00
-6.052773e+00
-6.057868e+00
-6.062339e+00
-6.066151e+00
-6.069231e+00
-6.071579e+00
-6.073154e+00
-6.073959e+00
-6.073944e+00
-6.073157e+00
-6.071582e+00
-6.069233e+00
-6.066139e+00
-6.062342e+00
-6.057866e+00
-6.052779e+00
-6.047116e+00
-6.040933e+00
-6.034306e+00
-6.027307e+00
-6.019998e+00
-6.012451e+00
-6.004730e+00
-5.996954e+00
-5.989155e+00
-5.981431e+00
-5.973828e+00
-5.966475e+00
-5.959391e+00
-5.952632e+00
-5.946296e+00
-5.940423e+00
-5.935069e+00
-5.930277e+00
-5.926083e+00
-5.922543e+00
-5.919673e+00
-5.917503e+00
-5.916037e+00
-5.915307e+00
-5.915307e+00
-5.916037e+00
-5.917492e+00
-5.919675e+00
-5.922542e+00
-5.926081e+00
-5.930279e+00
-5.935071e+00
-5.940424e+00
-5.946301e+00
-5.952632e+00
-5.959383e+00
-5.966468e+00
-5.973843e+00
-5.981433e+00
-5.989156e+00
-5.977829e+00
-5.985168e+00
-5.992439e+00
-5.999545e+00
-6.006470e+00
-6.013092e+00
-6.019365e+00
-6.025226e+00
-6.030612e+00
-6.035453e+00
-6.039697e+00
-6.043335e+00
-6.046261e+00
-6.048496e+00
-6.050004e+00
-6.050754e+00
-6.050756e+00
-6.049997e+00
-6.048495e+00
-6.046268e+00
-6.043322e+00
-6.039705e+00
-6.035452e+00
-6.030604e+00
-6.025241e+00
-6.019376e+00
-6.013096e+00
-6.006463e+00
-5.999534e+00
-5.992436e+00
-5.985156e+00
-5.977825e+00
-5.970500e+00
-5.963238e+00
-5.956117e+00
-5.949224e+00
-5.942577e+00
-5.936297e+00
-5.930384e+00
-5.924907e+00
-5.919928e+00
-5.915472e+00
-5.911582e+00
-5.908292e+00
-5.905627e+00
-5.903606e+00
-5.902254e+00
-5.901580e+00
-5.901585e+00
-5.902259e+00
-5.903605e+00
-5.905631e+00
-5.908296e+00
-5.911576e+00
-5.915449e+00
-5.919925e+00
-5.924907e+00
-5.930384e+00
-5.936289e+00
-5.942595e+00
-5.949218e+00
-5.956133e+00
-5.963251e+00
-5.970502e+00
-5.960028e+00
-5.966806e+00
-5.973544e+00
-5.980126e+00
-5.986553e+00
-5.992707e+00
-5.998544e+00
-6.004004e+00
-6.009019e+00
-6.013549e+00
-6.017514e+00
-6.020891e+00
-6.023656e+00
-6.025748e+00
-6.027157e+00
-6.027855e+00
-6.027865e+00
-6.027153e+00
-6.025747e+00
-6.023650e+00
-6.020898e+00
-6.017520e+00
-6.013537e+00
-6.009021e+00
-6.003995e+00
-5.998555e+00
-5.992702e+00
-5.986540e+00
-5.980123e+00
-5.973534e+00
-5.966794e+00
-5.960032e+00
-5.953268e+00
-5.946592e+00
-5.940046e+00
-5.933722e+00
-5.927630e+00
-5.921890e+00
-5.916475e+00
-5.911484e+00
-5.906950e+00
-5.902895e+00
-5.899359e+00
-5.896370e+00
-5.893957e+00
-5.892128e+00
-5.890907e+00
-5.890281e+00
-5.890277e+00
-5.890897e+00
-5.892128e+00
-5.893969e+00
-5.896366e+00
-5.899363e+00
-5.902879e+00
-5.906951e+00
-5.911482e+00
-5.916479e+00
-5.921873e+00
-5.927644e+00
-5.933716e+00
-5.940046e+00
-5.946588e+00
-5.953266e+00
-5.943792e+00
-5.949915e+00
-5.955982e+00
-5.961972e+00
-5.967808e+00
-5.973390e+00
-5.978713e+00
-5.983690e+00
-5.988278e+00
-5.992411e+00
-5.996050e+00
-5.999134e+00
-6.001672e+00
-6.003593e+00
-6.004876e+00
-6.005531e+00
-6.005532e+00
-6.004888e+00
-6.003588e+00
-6.001673e+00
-5.999150e+00
-5.996046e+00
-5.992409e+00
-5.988280e+00
-5.983689e+00
-5.978710e+00
-5.973397e+00
-5.967794e+00
-5.961966e+00
-5.955991e+00
-5.949903e+00
-5.943790e+00
-5.937707e+00
-5.931691e+00
-5.925825e+00
-5.920173e+00
-5.914728e+00
-5.909613e+00
-5.904781e+00
-5.900349e+00
-5.896336e+00
-5.892744e+00
-5.889616e+00
-5.886975e+00
-5.884846e+00
-5.883227e+00
-5.882123e+00
-5.881596e+00
-5.881601e+00
-5.882148e+00
-5.883234e+00
-5.884830e+00
-5.886971e+00
-5.889607e+00
-5.892732e+00
-5.896295e+00
-5.900354e+00
-5.904794e+00
-5.909595e+00
-5.914721e+00
-5.920158e+00
-5.925834e+00
-5.931702e+00
-5.937706e+00
-5.929338e+00
-5.934703e+00
-5.940043e+00
-5.945323e+00
-5.950458e+00
-5.955417e+00
-5.960135e+00
-5.964561e+00
-5.968636e+00
-5.972329e+00
-5.975567e+00
-5.978331e+00
-5.980602e+00
-5.982322e+00
-5.983469e+00
-5.984057e+00
-5.984058e+00
-5.983481e+00
-5.982316e+00
-5.980604e+00
-5.978341e+00
-5.975566e+00
-5.972327e+00
-5.968647e+00
-5.964560e+00
-5.960135e+00
-5.955416e+00
-5.950460e+00
-5.945327e+00
-5.940053e+00
-5.934690e+00
-5.929340e+00
-5.924012e+00
-5.918771e+00
-5.913659e+00
-5.908741e+00
-5.904052e+00
-5.899623e+00
-5.895475e+00
-5.891655e+00
-5.888217e+00
-5.885148e+00
-5.882475e+00
-5.880226e+00
-5.878416e+00
-5.877046e+00
-5.876114e+00
-5.875658e+00
-5.875622e+00
-5.876123e+00
-5.877049e+00
-5.878423e+00
-5.880230e+00
-5.882477e+00
-5.885141e+00
-5.888187e+00
-5.891664e+00
-5.895478e+00
-5.899613e+00
-5.904037e+00
-5.908745e+00
-5.913667e+00
-5.918782e+00
-5.924027e+00
-5.916875e+00
-5.921405e+00
-5.925919e+00
-5.930416e+00
-5.934782e+00
-5.939021e+00
-5.943059e+00
-5.946859e+00
-5.950374e+00
-5.953561e+00
-5.956358e+00
-5.958749e+00
-5.960712e+00
-5.962201e+00
-5.963202e+00
-5.963716e+00
-5.963717e+00
-5.963207e+00
-5.962205e+00
-5.960712e+00
-5.958754e+00
-5.956358e+00
-5.953560e+00
-5.950386e+00
-5.946865e+00
-5.943065e+00
-5.939020e+00
-5.934785e+00
-5.930421e+00
-5.925923e+00
-5.921410e+00
-5.916871e+00
-5.912397e+00
-5.908003e+00
-5.903728e+00
-5.899638e+00
-5.895762e+00
-5.892081e+00
-5.888673e+00
-5.885556e+00
-5.882738e+00
-5.880237e+00
-5.878063e+00
-5.876238e+00
-5.874762e+00
-5.873667e+00
-5.872912e+00
-5.872545e+00
-5.872543e+00
-5.872877e+00
-5.873648e+00
-5.874758e+00
-5.876243e+00
-5.878065e+00
-5.880225e+00
-5.882731e+00
-5.885521e+00
-5.888685e+00
-5.892087e+00
-5.895738e+00
-5.899646e+00
-5.903743e+00
-5.907991e+00
-5.912389e+00
-5.906561e+00
-5.910177e+00
-5.913813e+00
-5.917416e+00
-5.920979e+00
-5.924431e+00
-5.927739e+00
-5.930847e+00
-5.933739e+00
-5.936360e+00
-5.938682e+00
-5.940653e+00
-5.942293e+00
-5.943528e+00
-5.944362e+00
-5.944791e+00
-5.944792e+00
-5.944367e+00
-5.943534e+00
-5.942293e+00
-5.940664e+00
-5.938682e+00
-5.936355e+00
-5.933734e+00
-5.930861e+00
-5.927736e+00
-5.924433e+00
-5.920982e+00
-5.917426e+00
-5.913811e+00
-5.910191e+00
-5.906560e+00
-5.902996e+00
-5.899523e+00
-5.896164e+00
-5.892967e+00
-5.889959e+00
-5.887108e+00
-5.884494e+00
-5.882095e+00
-5.879954e+00
-5.878058e+00
-5.876429e+00
-5.875058e+00
-5.873950e+00
-5.873116e+00
-5.872571e+00
-5.872293e+00
-5.872297e+00
-5.872568e+00
-5.873078e+00
-5.873945e+00
-5.875062e+00
-5.876431e+00
-5.878057e+00
-5.879948e+00
-5.882068e+00
-5.884489e+00
-5.887105e+00
-5.889927e+00
-5.892972e+00
-5.896172e+00
-5.899519e+00
-5.902996e+00
-5.898548e+00
-5.901206e+00
-5.903894e+00
-5.906573e+00
-5.909250e+00
-5.911859e+00
-5.914375e+00
-5.916751e+00
-5.918972e+00
-5.920994e+00
-5.922793e+00
-5.924322e+00
-5.925603e+00
-5.926567e+00
-5.927218e+00
-5.927548e+00
-5.927557e+00
-5.927224e+00
-5.926573e+00
-5.925603e+00
-5.924332e+00
-5.922783e+00
-5.920989e+00
-5.918967e+00
-5.916745e+00
-5.914369e+00
-5.911856e+00
-5.909253e+00
-5.906575e+00
-5.903851e+00
-5.901208e+00
-5.898556e+00
-5.895967e+00
-5.893469e+00
-5.891076e+00
-5.888821e+00
-5.886707e+00
-5.884749e+00
-5.882964e+00
-5.881349e+00
-5.879914e+00
-5.878656e+00
-5.877577e+00
-5.876684e+00
-5.875968e+00
-5.875433e+00
-5.875084e+00
-5.874912e+00
-5.874905e+00
-5.875082e+00
-5.875433e+00
-5.875965e+00
-5.876697e+00
-5.877568e+00
-5.878643e+00
-5.879915e+00
-5.881345e+00
-5.882927e+00
-5.884752e+00
-5.886725e+00
-5.888820e+00
-5.891081e+00
-5.893466e+00
-5.895967e+00
-5.892966e+00
-5.894607e+00
-5.896302e+00
-5.898021e+00
-5.899727e+00
-5.901482e+00
-5.903162e+00
-5.904778e+00
-5.906285e+00
-5.907684e+00
-5.908921e+00
-5.909992e+00
-5.910894e+00
-5.911568e+00
-5.912029e+00
-5.912262e+00
-5.912271e+00
-5.912035e+00
-5.911577e+00
-5.910894e+00
-5.910000e+00
-5.908930e+00
-5.907679e+00
-5.906289e+00
-5.904771e+00
-5.903170e+00
-5.901485e+00
-5.899766e+00
-5.898034e+00
-5.896296e+00
-5.894616e+00
-5.892964e+00
-5.891396e+00
-5.889911e+00
-5.888506e+00
-5.887259e+00
-5.886058e+00
-5.885045e+00
-5.884118e+00
-5.883303e+00
-5.882596e+00
-5.882002e+00
-5.881500e+00
-5.881098e+00
-5.880779e+00
-5.880548e+00
-5.880404e+00
-5.880328e+00
-5.880324e+00
-5.880398e+00
-5.880548e+00
-5.880777e+00
-5.881112e+00
-5.881491e+00
-5.881997e+00
-5.882596e+00
-5.883298e+00
-5.884079e+00
-5.885037e+00
-5.886103e+00
-5.887256e+00
-5.888529e+00
-5.889913e+00
-5.891403e+00
-5.889884e+00
-5.890501e+00
-5.891170e+00
-5.891898e+00
-5.892681e+00
-5.893479e+00
-5.894299e+00
-5.895111e+00
-5.895896e+00
-5.896636e+00
-5.897300e+00
-5.897886e+00
-5.898394e+00
-5.898768e+00
-5.899029e+00
-5.899161e+00
-5.899171e+00
-5.899035e+00
-5.898768e+00
-5.898394e+00
-5.897900e+00
-5.897309e+00
-5.896631e+00
-5.895895e+00
-5.895112e+00
-5.894300e+00
-5.893483e+00
-5.892678e+00
-5.891865e+00
-5.891161e+00
-5.890501e+00
-5.889891e+00
-5.889370e+00
-5.888918e+00
-5.888538e+00
-5.888283e+00
-5.888097e+00
-5.887977e+00
-5.887917e+00
-5.887913e+00
-5.887948e+00
-5.888031e+00
-5.888115e+00
-5.888211e+00
-5.888296e+00
-5.888371e+00
-5.888433e+00
-5.888466e+00
-5.888456e+00
-5.888427e+00
-5.888371e+00
-5.888294e+00
-5.888197e+00
-5.888106e+00
-5.888027e+00
-5.887955e+00
-5.887911e+00
-5.887912e+00
-5.887926e+00
-5.888106e+00
-5.888286e+00
-5.888562e+00
-5.888922e+00
-5.889377e+00
-5.889377e+00
-5.888922e+00
-5.888562e+00
-5.888286e+00
-5.888106e+00
-5.887926e+00
-5.887912e+00
-5.887911e+00
-5.887955e+00
-5.888027e+00
-5.888106e+00
-5.888197e+00
-5.888294e+00
-5.888371e+00
-5.888427e+00
-5.888456e+00
-5.888466e+00
-5.888433e+00
-5.888371e+00
-5.888296e+00
-5.888211e+00
-5.888115e+00
-5.888031e+00
-5.887948e+00
-5.887913e+00
-5.887917e+00
-5.887977e+00
-5.888097e+00
-5.888283e+00
-5.888538e+00
-5.888918e+00
-5.889370e+00
-5.889891e+00
-5.890501e+00
-5.891161e+00
-5.891865e+00
-5.892678e+00
-5.893483e+00
-5.894300e+00
-5.895112e+00
-5.895895e+00
-5.896631e+00
-5.897309e+00
-5.897900e+00
-5.898394e+00
-5.898768e+00
-5.899035e+00
-5.899171e+00
-5.899161e+00
-5.899029e+00
-5.898768e+00
-5.898394e+00
-5.897886e+00
-5.897300e+00
-5.896636e+00
-5.895896e+00
-5.895111e+00
-5.894299e+00
-5.893479e+00
-5.892681e+00
-5.891898e+00
-5.891170e+00
-5.890501e+00
-5.889884e+00