<?xml version="1.0"?>
<VTKFile byte_order="LittleEndian" version="1.0" type="ImageData">
<ImageData Origin="0.0000000000000000e+00 0.0000000000000000e+00 0.0000000000000000e+00" WholeExtent="0 63 0 63 0 63" Spacing="5.0793653726577759e-01 5.0793653726577759e-01 5.0793653726577759e-01">
<Piece Extent="0 63 0 63 0 63">
<PointData Scalars="wall">
<DataArray type="Float64" Name="wall" NumberOfComponents="1" format="ascii"/>5.241096e+00
5.244126e+00
5.247103e+00
5.249994e+00
5.252772e+00
5.255406e+00
5.257885e+00
5.260175e+00
5.262260e+00
5.264138e+00
5.265781e+00
5.267172e+00
5.268305e+00
5.269169e+00
5.269680e+00
5.269965e+00
5.269959e+00
5.269675e+00
5.269112e+00
5.268266e+00
5.267146e+00
5.265770e+00
5.264137e+00
5.262268e+00
5.260175e+00
5.257885e+00
5.255411e+00
5.252773e+00
5.249995e+00
5.247099e+00
5.244138e+00
5.241093e+00
5.238041e+00
5.234965e+00
5.231933e+00
5.228959e+00
5.226074e+00
5.223311e+00
5.220681e+00
5.218246e+00
5.216008e+00
5.214000e+00
5.212230e+00
5.210722e+00
5.209517e+00
5.208588e+00
5.207972e+00
5.207652e+00
5.207656e+00
5.207967e+00
5.208584e+00
5.209502e+00
5.210725e+00
5.212225e+00
5.214000e+00
5.216007e+00
5.218249e+00
5.220691e+00
5.223305e+00
5.226071e+00
5.228959e+00
5.231933e+00
5.234965e+00
5.238027e+00
5.229839e+00
5.233229e+00
5.236561e+00
5.239785e+00
5.242894e+00
5.245848e+00
5.248617e+00
5.251183e+00
5.253521e+00
5.255610e+00
5.257444e+00
5.258986e+00
5.260242e+00
5.261191e+00
5.261824e+00
5.262140e+00
5.262146e+00
5.261825e+00
5.261189e+00
5.260239e+00
5.258986e+00
5.257442e+00
5.255613e+00
5.253521e+00
5.251187e+00
5.248619e+00
5.245849e+00
5.242893e+00
5.239784e+00
5.236562e+00
5.233232e+00
5.229841e+00
5.226386e+00
5.222988e+00
5.219600e+00
5.216275e+00
5.213057e+00
5.209972e+00
5.207036e+00
5.204321e+00
5.201825e+00
5.199572e+00
5.197588e+00
5.195929e+00
5.194562e+00
5.193528e+00
5.192838e+00
5.192482e+00
5.192487e+00
5.192832e+00
5.193522e+00
5.194558e+00
5.195920e+00
5.197591e+00
5.199573e+00
5.201829e+00
5.204311e+00
5.207053e+00
5.209968e+00
5.213055e+00
5.216275e+00
5.219600e+00
5.222987e+00
5.226414e+00
5.217405e+00
5.221180e+00
5.224875e+00
5.228472e+00
5.231921e+00
5.235207e+00
5.238288e+00
5.241142e+00
5.243760e+00
5.246081e+00
5.248121e+00
5.249834e+00
5.251231e+00
5.252288e+00
5.252995e+00
5.253352e+00
5.253359e+00
5.252991e+00
5.252284e+00
5.251227e+00
5.249834e+00
5.248114e+00
5.246086e+00
5.243754e+00
5.241147e+00
5.238289e+00
5.235207e+00
5.231929e+00
5.228470e+00
5.224875e+00
5.221173e+00
5.217416e+00
5.213599e+00
5.209800e+00
5.206027e+00
5.202339e+00
5.198765e+00
5.195334e+00
5.192095e+00
5.189065e+00
5.186289e+00
5.183787e+00
5.181617e+00
5.179734e+00
5.178227e+00
5.177082e+00
5.176301e+00
5.175920e+00
5.175923e+00
5.176313e+00
5.177078e+00
5.178238e+00
5.179745e+00
5.181607e+00
5.183794e+00
5.186297e+00
5.189075e+00
5.192082e+00
5.195326e+00
5.198760e+00
5.202343e+00
5.206027e+00
5.209799e+00
5.213599e+00
5.203749e+00
5.207919e+00
5.212012e+00
5.215983e+00
5.219803e+00
5.223433e+00
5.226850e+00
5.230010e+00
5.232886e+00
5.235471e+00
5.237711e+00
5.239624e+00
5.241168e+00
5.242338e+00
5.243124e+00
5.243524e+00
5.243518e+00
5.243128e+00
5.242345e+00
5.241175e+00
5.239621e+00
5.237717e+00
5.235469e+00
5.232889e+00
5.230002e+00
5.226844e+00
5.223437e+00
5.219802e+00
5.215986e+00
5.212006e+00
5.207922e+00
5.203751e+00
5.199548e+00
5.195340e+00
5.191184e+00
5.187113e+00
5.183159e+00
5.179380e+00
5.175802e+00
5.172462e+00
5.169395e+00
5.166658e+00
5.164229e+00
5.162171e+00
5.160503e+00
5.159230e+00
5.158381e+00
5.157953e+00
5.157953e+00
5.158390e+00
5.159229e+00
5.160504e+00
5.162172e+00
5.164231e+00
5.166650e+00
5.169397e+00
5.172471e+00
5.175809e+00
5.179374e+00
5.183161e+00
5.187114e+00
5.191190e+00
5.195348e+00
5.199545e+00
5.188843e+00
5.193424e+00
5.197912e+00
5.202282e+00
5.206481e+00
5.210479e+00
5.214225e+00
5.217710e+00
5.220875e+00
5.223721e+00
5.226185e+00
5.228294e+00
5.229992e+00
5.231277e+00
5.232145e+00
5.232573e+00
5.232579e+00
5.232138e+00
5.231277e+00
5.229991e+00
5.228291e+00
5.226192e+00
5.223713e+00
5.220881e+00
5.217709e+00
5.214228e+00
5.210470e+00
5.206486e+00
5.202280e+00
5.197911e+00
5.193421e+00
5.188832e+00
5.184231e+00
5.179603e+00
5.175046e+00
5.170575e+00
5.166241e+00
5.162111e+00
5.158158e+00
5.154493e+00
5.151147e+00
5.148118e+00
5.145469e+00
5.143221e+00
5.141382e+00
5.139991e+00
5.139047e+00
5.138580e+00
5.138577e+00
5.139050e+00
5.139982e+00
5.141382e+00
5.143221e+00
5.145468e+00
5.148124e+00
5.151141e+00
5.154494e+00
5.158165e+00
5.162091e+00
5.166245e+00
5.170579e+00
5.175046e+00
5.179606e+00
5.184227e+00
5.172658e+00
5.177651e+00
5.182562e+00
5.187328e+00
5.191921e+00
5.196285e+00
5.200391e+00
5.204187e+00
5.207663e+00
5.210767e+00
5.213476e+00
5.215773e+00
5.217634e+00
5.219044e+00
5.219991e+00
5.220467e+00
5.220467e+00
5.219987e+00
5.219045e+00
5.217638e+00
5.215778e+00
5.213478e+00
5.210764e+00
5.207663e+00
5.204191e+00
5.200390e+00
5.196292e+00
5.191918e+00
5.187333e+00
5.182554e+00
5.177647e+00
5.172642e+00
5.167624e+00
5.162571e+00
5.157598e+00
5.152711e+00
5.147984e+00
5.143492e+00
5.139182e+00
5.135186e+00
5.131532e+00
5.128231e+00
5.125343e+00
5.122881e+00
5.120884e+00
5.119366e+00
5.118343e+00
5.117835e+00
5.117827e+00
5.118343e+00
5.119361e+00
5.120887e+00
5.122885e+00
5.125340e+00
5.128239e+00
5.131530e+00
5.135185e+00
5.139180e+00
5.143459e+00
5.147989e+00
5.152715e+00
5.157591e+00
5.162575e+00
5.167610e+00
5.155182e+00
5.160604e+00
5.165927e+00
5.171112e+00
5.176100e+00
5.180845e+00
5.185305e+00
5.189431e+00
5.193216e+00
5.196580e+00
5.199531e+00
5.202030e+00
5.204050e+00
5.205587e+00
5.206614e+00
5.207135e+00
5.207135e+00
5.206617e+00
5.205584e+00
5.204049e+00
5.202028e+00
5.199530e+00
5.196577e+00
5.193201e+00
5.189441e+00
5.185301e+00
5.180838e+00
5.176100e+00
5.171122e+00
5.165916e+00
5.160604e+00
5.155176e+00
5.149709e+00
5.144240e+00
5.138829e+00
5.133537e+00
5.128419e+00
5.123556e+00
5.118873e+00
5.114549e+00
5.110583e+00
5.107019e+00
5.103876e+00
5.101224e+00
5.099056e+00
5.097415e+00
5.096307e+00
5.095746e+00
5.095753e+00
5.096300e+00
5.097419e+00
5.099064e+00
5.101222e+00
5.103880e+00
5.107010e+00
5.110570e+00
5.114553e+00
5.118873e+00
5.123507e+00
5.128417e+00
5.133541e+00
5.138836e+00
5.144237e+00
5.149700e+00
5.136417e+00
5.142275e+00
5.148021e+00
5.153610e+00
5.158996e+00
5.164117e+00
5.168927e+00
5.173400e+00
5.177480e+00
5.181125e+00
5.184314e+00
5.187011e+00
5.189204e+00
5.190859e+00
5.191977e+00
5.192531e+00
5.192530e+00
5.191970e+00
5.190863e+00
5.189202e+00
5.187016e+00
5.184316e+00
5.181126e+00
5.177480e+00
5.173398e+00
5.168939e+00
5.164119e+00
5.159023e+00
5.153616e+00
5.148012e+00
5.142269e+00
5.136418e+00
5.130513e+00
5.124629e+00
5.118797e+00
5.113102e+00
5.107575e+00
5.102284e+00
5.097294e+00
5.092638e+00
5.088367e+00
5.084527e+00
5.081151e+00
5.078290e+00
5.075956e+00
5.074189e+00
5.073003e+00
5.072397e+00
5.072403e+00
5.072993e+00
5.074194e+00
5.075961e+00
5.078288e+00
5.081160e+00
5.084526e+00
5.088362e+00
5.092643e+00
5.097293e+00
5.102293e+00
5.107579e+00
5.113093e+00
5.118793e+00
5.124624e+00
5.130512e+00
5.116410e+00
5.122678e+00
5.128857e+00
5.134845e+00
5.140626e+00
5.146115e+00
5.151283e+00
5.156085e+00
5.160460e+00
5.164371e+00
5.167798e+00
5.170704e+00
5.173054e+00
5.174832e+00
5.176031e+00
5.176634e+00
5.176632e+00
5.176036e+00
5.174834e+00
5.173047e+00
5.170697e+00
5.167798e+00
5.164374e+00
5.160453e+00
5.156084e+00
5.151288e+00
5.146119e+00
5.140624e+00
5.134833e+00
5.128848e+00
5.122679e+00
5.116404e+00
5.110085e+00
5.103780e+00
5.097528e+00
5.091429e+00
5.085508e+00
5.079856e+00
5.074508e+00
5.069522e+00
5.064953e+00
5.060847e+00
5.057245e+00
5.054182e+00
5.051696e+00
5.049804e+00
5.048526e+00
5.047892e+00
5.047885e+00
5.048528e+00
5.049797e+00
5.051702e+00
5.054174e+00
5.057243e+00
5.060853e+00
5.064955e+00
5.069522e+00
5.074512e+00
5.079857e+00
5.085514e+00
5.091424e+00
5.097536e+00
5.103775e+00
5.110077e+00
5.095184e+00
5.101871e+00
5.108442e+00
5.114839e+00
5.120989e+00
5.126857e+00
5.132365e+00
5.137475e+00
5.142145e+00
5.146332e+00
5.149984e+00
5.153081e+00
5.155589e+00
5.157493e+00
5.158769e+00
5.159413e+00
5.159414e+00
5.158771e+00
5.157489e+00
5.155590e+00
5.153084e+00
5.149989e+00
5.146331e+00
5.142150e+00
5.137476e+00
5.132360e+00
5.126854e+00
5.120974e+00
5.114829e+00
5.108440e+00
5.101869e+00
5.095189e+00
5.088460e+00
5.081718e+00
5.075098e+00
5.068598e+00
5.062311e+00
5.056295e+00
5.050610e+00
5.045313e+00
5.040457e+00
5.036096e+00
5.032262e+00
5.029004e+00
5.026355e+00
5.024363e+00
5.022998e+00
5.022322e+00
5.022326e+00
5.023003e+00
5.024352e+00
5.026366e+00
5.029007e+00
5.032261e+00
5.036081e+00
5.040457e+00
5.045311e+00
5.050610e+00
5.056293e+00
5.062308e+00
5.068601e+00
5.075092e+00
5.081734e+00
5.088457e+00
5.072833e+00
5.079900e+00
5.086859e+00
5.093615e+00
5.100141e+00
5.106337e+00
5.112192e+00
5.117602e+00
5.122561e+00
5.126966e+00
5.130867e+00
5.134150e+00
5.136816e+00
5.138836e+00
5.140191e+00
5.140873e+00
5.140875e+00
5.140193e+00
5.138835e+00
5.136817e+00
5.134158e+00
5.130864e+00
5.126986e+00
5.122564e+00
5.117612e+00
5.112190e+00
5.106347e+00
5.100133e+00
5.093619e+00
5.086857e+00
5.079906e+00
5.072830e+00
5.065705e+00
5.058595e+00
5.051590e+00
5.044709e+00
5.038085e+00
5.031720e+00
5.025716e+00
5.020122e+00
5.014995e+00
5.010386e+00
5.006347e+00
5.002909e+00
5.000128e+00
4.998002e+00
4.996586e+00
4.995869e+00
4.995865e+00
4.996585e+00
4.998002e+00
5.000122e+00
5.002926e+00
5.006341e+00
5.010387e+00
5.015001e+00
5.020117e+00
5.025716e+00
5.031722e+00
5.038073e+00
5.044715e+00
5.051586e+00
5.058599e+00
5.065705e+00
5.049425e+00
5.056856e+00
5.064164e+00
5.071277e+00
5.078144e+00
5.084662e+00
5.090825e+00
5.096519e+00
5.101731e+00
5.106401e+00
5.110454e+00
5.113946e+00
5.116749e+00
5.118877e+00
5.120299e+00
5.121020e+00
5.121023e+00
5.120305e+00
5.118877e+00
5.116757e+00
5.113943e+00
5.110485e+00
5.106400e+00
5.101726e+00
5.096522e+00
5.090812e+00
5.084656e+00
5.078133e+00
5.071285e+00
5.064161e+00
5.056856e+00
5.049421e+00
5.041945e+00
5.034471e+00
5.027108e+00
5.019902e+00
5.012928e+00
5.006271e+00
4.999958e+00
4.994099e+00
4.988723e+00
4.983899e+00
4.979662e+00
4.976061e+00
4.973141e+00
4.970925e+00
4.969430e+00
4.968677e+00
4.968679e+00
4.969431e+00
4.970923e+00
4.973147e+00
4.976072e+00
4.979664e+00
4.983894e+00
4.988719e+00
4.994100e+00
4.999966e+00
5.006262e+00
5.012933e+00
5.019899e+00
5.027104e+00
5.034476e+00
5.041946e+00
5.025076e+00
5.032835e+00
5.040462e+00
5.047897e+00
5.055051e+00
5.061881e+00
5.068306e+00
5.074263e+00
5.079720e+00
5.084598e+00
5.088870e+00
5.092465e+00
5.095419e+00
5.097652e+00
5.099147e+00
5.099897e+00
5.099895e+00
5.099144e+00
5.097650e+00
5.095420e+00
5.092484e+00
5.088870e+00
5.084602e+00
5.079695e+00
5.074267e+00
5.068304e+00
5.061873e+00
5.055053e+00
5.047892e+00
5.040461e+00
5.032835e+00
5.025073e+00
5.017269e+00
5.009492e+00
5.001813e+00
4.994291e+00
4.987036e+00
4.980086e+00
4.973519e+00
4.967421e+00
4.961818e+00
4.956794e+00
4.952393e+00
4.948652e+00
4.945606e+00
4.943308e+00
4.941752e+00
4.940972e+00
4.940968e+00
4.941747e+00
4.943299e+00
4.945603e+00
4.948643e+00
4.952401e+00
4.956790e+00
4.961817e+00
4.967412e+00
4.973524e+00
4.980086e+00
4.986993e+00
4.994295e+00
5.001802e+00
5.009482e+00
5.017265e+00
4.999927e+00
5.007959e+00
5.015867e+00
5.023570e+00
5.031000e+00
5.038086e+00
5.044744e+00
5.050936e+00
5.056587e+00
5.061658e+00
5.066092e+00
5.069849e+00
5.072888e+00
5.075219e+00
5.076766e+00
5.077552e+00
5.077551e+00
5.076769e+00
5.075218e+00
5.072909e+00
5.069856e+00
5.066088e+00
5.061655e+00
5.056587e+00
5.050931e+00
5.044729e+00
5.038076e+00
5.030998e+00
5.023571e+00
5.015861e+00
5.007960e+00
4.999926e+00
4.991841e+00
4.983779e+00
4.975834e+00
4.968059e+00
4.960536e+00
4.953354e+00
4.946581e+00
4.940264e+00
4.934488e+00
4.929299e+00
4.924751e+00
4.920880e+00
4.917744e+00
4.915359e+00
4.913754e+00
4.912959e+00
4.912957e+00
4.913760e+00
4.915365e+00
4.917744e+00
4.920883e+00
4.924737e+00
4.929293e+00
4.934489e+00
4.940269e+00
4.946577e+00
4.953362e+00
4.960540e+00
4.968051e+00
4.975827e+00
4.983785e+00
4.991844e+00
4.974123e+00
4.982389e+00
4.990520e+00
4.998446e+00
5.006082e+00
5.013384e+00
5.020249e+00
5.026613e+00
5.032450e+00
5.037672e+00
5.042243e+00
5.046125e+00
5.049271e+00
5.051640e+00
5.053259e+00
5.054064e+00
5.054064e+00
5.053258e+00
5.051652e+00
5.049265e+00
5.046122e+00
5.042244e+00
5.037676e+00
5.032449e+00
5.026619e+00
5.020235e+00
5.013380e+00
5.006091e+00
4.998447e+00
4.990521e+00
4.982385e+00
4.974126e+00
4.965820e+00
4.957533e+00
4.949365e+00
4.941388e+00
4.933664e+00
4.926300e+00
4.919348e+00
4.912868e+00
4.906947e+00
4.901620e+00
4.896957e+00
4.893003e+00
4.889792e+00
4.887343e+00
4.885699e+00
4.884874e+00
4.884876e+00
4.885700e+00
4.887345e+00
4.889785e+00
4.892997e+00
4.896953e+00
4.901626e+00
4.906954e+00
4.912864e+00
4.919345e+00
4.926298e+00
4.933671e+00
4.941352e+00
4.949362e+00
4.957528e+00
4.965813e+00
4.947852e+00
4.956281e+00
4.964581e+00
4.972672e+00
4.980473e+00
4.987931e+00
4.994947e+00
5.001458e+00
5.007421e+00
5.012764e+00
5.017438e+00
5.021401e+00
5.024626e+00
5.027067e+00
5.028703e+00
5.029527e+00
5.029531e+00
5.028706e+00
5.027068e+00
5.024627e+00
5.021403e+00
5.017436e+00
5.012764e+00
5.007420e+00
5.001443e+00
4.994941e+00
4.987921e+00
4.980480e+00
4.972668e+00
4.964584e+00
4.956281e+00
4.947852e+00
4.939374e+00
4.930945e+00
4.922612e+00
4.914488e+00
4.906622e+00
4.899126e+00
4.892116e+00
4.885499e+00
4.879426e+00
4.874016e+00
4.869283e+00
4.865247e+00
4.861980e+00
4.859507e+00
4.857840e+00
4.857001e+00
4.856997e+00
4.857838e+00
4.859503e+00
4.861986e+00
4.865257e+00
4.869274e+00
4.874016e+00
4.879425e+00
4.885459e+00
4.892045e+00
4.899125e+00
4.906622e+00
4.914455e+00
4.922607e+00
4.930939e+00
4.939381e+00
4.921305e+00
4.929834e+00
4.938236e+00
4.946429e+00
4.954333e+00
4.961884e+00
4.968993e+00
4.975597e+00
4.981632e+00
4.987057e+00
4.991804e+00
4.995830e+00
4.999101e+00
5.001574e+00
5.003244e+00
5.004091e+00
5.004076e+00
5.003239e+00
5.001573e+00
4.999103e+00
4.995836e+00
4.991810e+00
4.987064e+00
4.981636e+00
4.975590e+00
4.968987e+00
4.961881e+00
4.954334e+00
4.946428e+00
4.938226e+00
4.929834e+00
4.921312e+00
4.912734e+00
4.904202e+00
4.895784e+00
4.887584e+00
4.879637e+00
4.872071e+00
4.864923e+00
4.858270e+00
4.852224e+00
4.846756e+00
4.841964e+00
4.837908e+00
4.834616e+00
4.832120e+00
4.830438e+00
4.829592e+00
4.829588e+00
4.830435e+00
4.832119e+00
4.834621e+00
4.837912e+00
4.841959e+00
4.846741e+00
4.852200e+00
4.858283e+00
4.864925e+00
4.872067e+00
4.879639e+00
4.887547e+00
4.895756e+00
4.904206e+00
4.912732e+00
4.894703e+00
4.903246e+00
4.911681e+00
4.919905e+00
4.927838e+00
4.935422e+00
4.942563e+00
4.949212e+00
4.955279e+00
4.960736e+00
4.965508e+00
4.969562e+00
4.972841e+00
4.975340e+00
4.977017e+00
4.977863e+00
4.977891e+00
4.977018e+00
4.975339e+00
4.972844e+00
4.969558e+00
4.965508e+00
4.960727e+00
4.955266e+00
4.949203e+00
4.942559e+00
4.935418e+00
4.927841e+00
4.919902e+00
4.911676e+00
4.903251e+00
4.894694e+00
4.886111e+00
4.877550e+00
4.869123e+00
4.860912e+00
4.852959e+00
4.845387e+00
4.838238e+00
4.831593e+00
4.825519e+00
4.820067e+00
4.815291e+00
4.811232e+00
4.807951e+00
4.805462e+00
4.803774e+00
4.802943e+00
4.802938e+00
4.803782e+00
4.805452e+00
4.807943e+00
4.811244e+00
4.815292e+00
4.820065e+00
4.825523e+00
4.831586e+00
4.838233e+00
4.845382e+00
4.852962e+00
4.860903e+00
4.869095e+00
4.877553e+00
4.886103e+00
4.868256e+00
4.876757e+00
4.885126e+00
4.893301e+00
4.901208e+00
4.908753e+00
4.915862e+00
4.922482e+00
4.928532e+00
4.933968e+00
4.938721e+00
4.942758e+00
4.946041e+00
4.948527e+00
4.950201e+00
4.951040e+00
4.951038e+00
4.950203e+00
4.948529e+00
4.946036e+00
4.942760e+00
4.938722e+00
4.933963e+00
4.928520e+00
4.922474e+00
4.915864e+00
4.908744e+00
4.901207e+00
4.893300e+00
4.885130e+00
4.876755e+00
4.868254e+00
4.859720e+00
4.851230e+00
4.842871e+00
4.834726e+00
4.826840e+00
4.819336e+00
4.812253e+00
4.805675e+00
4.799659e+00
4.794264e+00
4.789532e+00
4.785526e+00
4.782279e+00
4.779791e+00
4.778147e+00
4.777321e+00
4.777328e+00
4.778153e+00
4.779808e+00
4.782276e+00
4.785541e+00
4.789538e+00
4.794264e+00
4.799655e+00
4.805673e+00
4.812255e+00
4.819331e+00
4.826844e+00
4.834716e+00
4.842844e+00
4.851200e+00
4.859723e+00
4.842224e+00
4.850582e+00
4.858827e+00
4.866869e+00
4.874657e+00
4.882090e+00
4.889099e+00
4.895619e+00
4.901599e+00
4.906952e+00
4.911651e+00
4.915640e+00
4.918881e+00
4.921335e+00
4.922983e+00
4.923819e+00
4.923814e+00
4.922981e+00
4.921329e+00
4.918880e+00
4.915646e+00
4.911653e+00
4.906938e+00
4.901599e+00
4.895627e+00
4.889097e+00
4.882089e+00
4.874656e+00
4.866873e+00
4.858825e+00
4.850573e+00
4.842228e+00
4.833840e+00
4.825495e+00
4.817279e+00
4.809285e+00
4.801550e+00
4.794190e+00
4.787240e+00
4.780789e+00
4.774904e+00
4.769608e+00
4.764986e+00
4.761064e+00
4.757879e+00
4.755465e+00
4.753844e+00
4.752999e+00
4.753028e+00
4.753848e+00
4.755469e+00
4.757878e+00
4.761073e+00
4.764986e+00
4.769612e+00
4.774899e+00
4.780796e+00
4.787247e+00
4.794185e+00
4.801550e+00
4.809273e+00
4.817255e+00
4.825462e+00
4.833835e+00
4.816850e+00
4.824980e+00
4.833005e+00
4.840843e+00
4.848427e+00
4.855665e+00
4.862506e+00
4.868872e+00
4.874711e+00
4.879930e+00
4.884525e+00
4.888422e+00
4.891578e+00
4.893981e+00
4.895597e+00
4.896403e+00
4.896410e+00
4.895595e+00
4.893980e+00
4.891578e+00
4.888415e+00
4.884522e+00
4.879935e+00
4.874705e+00
4.868874e+00
4.862510e+00
4.855667e+00
4.848415e+00
4.840847e+00
4.833010e+00
4.824977e+00
4.816861e+00
4.808691e+00
4.800589e+00
4.792608e+00
4.784848e+00
4.777342e+00
4.770185e+00
4.763465e+00
4.757215e+00
4.751503e+00
4.746391e+00
4.741917e+00
4.738122e+00
4.735040e+00
4.732708e+00
4.731137e+00
4.730348e+00
4.730348e+00
4.731141e+00
4.732706e+00
4.735039e+00
4.738112e+00
4.741917e+00
4.746395e+00
4.751513e+00
4.757226e+00
4.763460e+00
4.770189e+00
4.777332e+00
4.784837e+00
4.792587e+00
4.800558e+00
4.808693e+00
4.792389e+00
4.800205e+00
4.807918e+00
4.815460e+00
4.822769e+00
4.829735e+00
4.836328e+00
4.842461e+00
4.848079e+00
4.853137e+00
4.857559e+00
4.861320e+00
4.864380e+00
4.866699e+00
4.868256e+00
4.869044e+00
4.869044e+00
4.868264e+00
4.866699e+00
4.864378e+00
4.861324e+00
4.857560e+00
4.853140e+00
4.848080e+00
4.842463e+00
4.836329e+00
4.829740e+00
4.822755e+00
4.815465e+00
4.807924e+00
4.800205e+00
4.792394e+00
4.784555e+00
4.776770e+00
4.769119e+00
4.761660e+00
4.754482e+00
4.747626e+00
4.741194e+00
4.735219e+00
4.729755e+00
4.724868e+00
4.720592e+00
4.716966e+00
4.714021e+00
4.711790e+00
4.710295e+00
4.709542e+00
4.709542e+00
4.710289e+00
4.711793e+00
4.714021e+00
4.716967e+00
4.720586e+00
4.724867e+00
4.729752e+00
4.735213e+00
4.741193e+00
4.747636e+00
4.754478e+00
4.761660e+00
4.769120e+00
4.776746e+00
4.784525e+00
4.769093e+00
4.776504e+00
4.783828e+00
4.790981e+00
4.797925e+00
4.804545e+00
4.810815e+00
4.816656e+00
4.822003e+00
4.826821e+00
4.831026e+00
4.834617e+00
4.837532e+00
4.839741e+00
4.841228e+00
4.841982e+00
4.841973e+00
4.841232e+00
4.839746e+00
4.837529e+00
4.834616e+00
4.831032e+00
4.826807e+00
4.822004e+00
4.816650e+00
4.810815e+00
4.804548e+00
4.797916e+00
4.790986e+00
4.783816e+00
4.776511e+00
4.769093e+00
4.761665e+00
4.754301e+00
4.747059e+00
4.740015e+00
4.733228e+00
4.726757e+00
4.720681e+00
4.715043e+00
4.709898e+00
4.705292e+00
4.701265e+00
4.697840e+00
4.695072e+00
4.692972e+00
4.691564e+00
4.690862e+00
4.690862e+00
4.691564e+00
4.692977e+00
4.695072e+00
4.697833e+00
4.701254e+00
4.705286e+00
4.709898e+00
4.715044e+00
4.720684e+00
4.726767e+00
4.733228e+00
4.740011e+00
4.747063e+00
4.754281e+00
4.761646e+00
4.747220e+00
4.754134e+00
4.760974e+00
4.767670e+00
4.774138e+00
4.780355e+00
4.786227e+00
4.791698e+00
4.796714e+00
4.801242e+00
4.805187e+00
4.808560e+00
4.811291e+00
4.813368e+00
4.814768e+00
4.815465e+00
4.815470e+00
4.814763e+00
4.813378e+00
4.811295e+00
4.808554e+00
4.805194e+00
4.801226e+00
4.796715e+00
4.791701e+00
4.786225e+00
4.780351e+00
4.774149e+00
4.767673e+00
4.760969e+00
4.754148e+00
4.747220e+00
4.740299e+00
4.733429e+00
4.726683e+00
4.720128e+00
4.713789e+00
4.707805e+00
4.702137e+00
4.696938e+00
4.692167e+00
4.687886e+00
4.684154e+00
4.680993e+00
4.678433e+00
4.676490e+00
4.675183e+00
4.674538e+00
4.674533e+00
4.675187e+00
4.676493e+00
4.678432e+00
4.680999e+00
4.684157e+00
4.687891e+00
4.692163e+00
4.696934e+00
4.702172e+00
4.707821e+00
4.713810e+00
4.720130e+00
4.726681e+00
4.733429e+00
4.740273e+00
4.727005e+00
4.733347e+00
4.739621e+00
4.745758e+00
4.751709e+00
4.757426e+00
4.762824e+00
4.767863e+00
4.772489e+00
4.776639e+00
4.780303e+00
4.783410e+00
4.785929e+00
4.787851e+00
4.789143e+00
4.789792e+00
4.789790e+00
4.789143e+00
4.787846e+00
4.785938e+00
4.783407e+00
4.780307e+00
4.776644e+00
4.772490e+00
4.767864e+00
4.762828e+00
4.757421e+00
4.751720e+00
4.745765e+00
4.739616e+00
4.733362e+00
4.727005e+00
4.720671e+00
4.714388e+00
4.708227e+00
4.702242e+00
4.696489e+00
4.691006e+00
4.685868e+00
4.681114e+00
4.676765e+00
4.672885e+00
4.669501e+00
4.666627e+00
4.664306e+00
4.662542e+00
4.661357e+00
4.660768e+00
4.660769e+00
4.661362e+00
4.662546e+00
4.664305e+00
4.666630e+00
4.669499e+00
4.672885e+00
4.676773e+00
4.681110e+00
4.685877e+00
4.691003e+00
4.696479e+00
4.702237e+00
4.708225e+00
4.714392e+00
4.720648e+00
4.708690e+00
4.714369e+00
4.719996e+00
4.725513e+00
4.730855e+00
4.736002e+00
4.740864e+00
4.745411e+00
4.749587e+00
4.753331e+00
4.756644e+00
4.759438e+00
4.761729e+00
4.763466e+00
4.764633e+00
4.765225e+00
4.765223e+00
4.764631e+00
4.763463e+00
4.761724e+00
4.759445e+00
4.756633e+00
4.753336e+00
4.749580e+00
4.745413e+00
4.740867e+00
4.736003e+00
4.730863e+00
4.725502e+00
4.719997e+00
4.714376e+00
4.708689e+00
4.703017e+00
4.697398e+00
4.691896e+00
4.686555e+00
4.681429e+00
4.676549e+00
4.671986e+00
4.667755e+00
4.663903e+00
4.660459e+00
4.657465e+00
4.654919e+00
4.652865e+00
4.651305e+00
4.650256e+00
4.649735e+00
4.649736e+00
4.650261e+00
4.651309e+00
4.652864e+00
4.654922e+00
4.657456e+00
4.660462e+00
4.663906e+00
4.667757e+00
4.671996e+00
4.676562e+00
4.681426e+00
4.686557e+00
4.691895e+00
4.697402e+00
4.703018e+00
4.692474e+00
4.697425e+00
4.702338e+00
4.707150e+00
4.711840e+00
4.716339e+00
4.720602e+00
4.724589e+00
4.728251e+00
4.731556e+00
4.734475e+00
4.736933e+00
4.738949e+00
4.740479e+00
4.741510e+00
4.742032e+00
4.742036e+00
4.741513e+00
4.740483e+00
4.738949e+00
4.736937e+00
4.734463e+00
4.731556e+00
4.728258e+00
4.724590e+00
4.720605e+00
4.716340e+00
4.711837e+00
4.707146e+00
4.702340e+00
4.697425e+00
4.692475e+00
4.687543e+00
4.682665e+00
4.677892e+00
4.673267e+00
4.668836e+00
4.664617e+00
4.660686e+00
4.657041e+00
4.653728e+00
4.650767e+00
4.648198e+00
4.646012e+00
4.644249e+00
4.642918e+00
4.642019e+00
4.641574e+00
4.641575e+00
4.642024e+00
4.642921e+00
4.644249e+00
4.646021e+00
4.648190e+00
4.650771e+00
4.653730e+00
4.657041e+00
4.660682e+00
4.664620e+00
4.668832e+00
4.673270e+00
4.677889e+00
4.682668e+00
4.687547e+00
4.678565e+00
4.682717e+00
4.686844e+00
4.690902e+00
4.694860e+00
4.698656e+00
4.702266e+00
4.705649e+00
4.708763e+00
4.711569e+00
4.714039e+00
4.716146e+00
4.717865e+00
4.719170e+00
4.720047e+00
4.720486e+00
4.720481e+00
4.720053e+00
4.719164e+00
4.717860e+00
4.716146e+00
4.714043e+00
4.711569e+00
4.708766e+00
4.705651e+00
4.702264e+00
4.698653e+00
4.694857e+00
4.690898e+00
4.686852e+00
4.682720e+00
4.678566e+00
4.674434e+00
4.670358e+00
4.666374e+00
4.662533e+00
4.658853e+00
4.655354e+00
4.652097e+00
4.649094e+00
4.646363e+00
4.643926e+00
4.641811e+00
4.640020e+00
4.638574e+00
4.637484e+00
4.636750e+00
4.636384e+00
4.636385e+00
4.636807e+00
4.637519e+00
4.638575e+00
4.640027e+00
4.641805e+00
4.643911e+00
4.646366e+00
4.649099e+00
4.652103e+00
4.655358e+00
4.658850e+00
4.662535e+00
4.666383e+00
4.670360e+00
4.674441e+00
4.667124e+00
4.670423e+00
4.673715e+00
4.676957e+00
4.680124e+00
4.683176e+00
4.686086e+00
4.688816e+00
4.691331e+00
4.693606e+00
4.695614e+00
4.697327e+00
4.698725e+00
4.699785e+00
4.700494e+00
4.700859e+00
4.700854e+00
4.700495e+00
4.699781e+00
4.698720e+00
4.697326e+00
4.695612e+00
4.693606e+00
4.691330e+00
4.688821e+00
4.686084e+00
4.683177e+00
4.680128e+00
4.676953e+00
4.673708e+00
4.670421e+00
4.667120e+00
4.663848e+00
4.660630e+00
4.657501e+00
4.654474e+00
4.651597e+00
4.648885e+00
4.646344e+00
4.644014e+00
4.641904e+00
4.640010e+00
4.638390e+00
4.637018e+00
4.635904e+00
4.635069e+00
4.634505e+00
4.634224e+00
4.634228e+00
4.634509e+00
4.635069e+00
4.635904e+00
4.637015e+00
4.638392e+00
4.640025e+00
4.641875e+00
4.643985e+00
4.646344e+00
4.648874e+00
4.651606e+00
4.654474e+00
4.657495e+00
4.660634e+00
4.663852e+00
4.658292e+00
4.660690e+00
4.663100e+00
4.665482e+00
4.667827e+00
4.670091e+00
4.672254e+00
4.674299e+00
4.676182e+00
4.677897e+00
4.679413e+00
4.680707e+00
4.681767e+00
4.682560e+00
4.683106e+00
4.683379e+00
4.683380e+00
4.683110e+00
4.682567e+00
4.681759e+00
4.680701e+00
4.679406e+00
4.677891e+00
4.676185e+00
4.674299e+00
4.672258e+00
4.670085e+00
4.667815e+00
4.665486e+00
4.663096e+00
4.660695e+00
4.658294e+00
4.655919e+00
4.653603e+00
4.651360e+00
4.649203e+00
4.647165e+00
4.645255e+00
4.643475e+00
4.641852e+00
4.640384e+00
4.639077e+00
4.637966e+00
4.637027e+00
4.636265e+00
4.635702e+00
4.635313e+00
4.635125e+00
4.635126e+00
4.635317e+00
4.635697e+00
4.636265e+00
4.637024e+00
4.637969e+00
4.639091e+00
4.640382e+00
4.641822e+00
4.643443e+00
4.645246e+00
4.647174e+00
4.649202e+00
4.651354e+00
4.653601e+00
4.655923e+00
4.652174e+00
4.653647e+00
4.655139e+00
4.656633e+00
4.658119e+00
4.659557e+00
4.660955e+00
4.662279e+00
4.663511e+00
4.664640e+00
4.665629e+00
4.666494e+00
4.667192e+00
4.667732e+00
4.668096e+00
4.668280e+00
4.668281e+00
4.668094e+00
4.667733e+00
4.667199e+00
4.666494e+00
4.665635e+00
4.664633e+00
4.663515e+00
4.662283e+00
4.660959e+00
4.659558e+00
4.658108e+00
4.656631e+00
4.655138e+00
4.653648e+00
4.652177e+00
4.650749e+00
4.649353e+00
4.648033e+00
4.646780e+00
4.645604e+00
4.644524e+00
4.643527e+00
4.642632e+00
4.641833e+00
4.641124e+00
4.640538e+00
4.640046e+00
4.639647e+00
4.639357e+00
4.639159e+00
4.639058e+00
4.639063e+00
4.639157e+00
4.639352e+00
4.639645e+00
4.640051e+00
4.640541e+00
4.641139e+00
4.641830e+00
4.642630e+00
4.643527e+00
4.644524e+00
4.645614e+00
4.646773e+00
4.648028e+00
4.649352e+00
4.650739e+00
4.648856e+00
4.649380e+00
4.649936e+00
4.650519e+00
4.651118e+00
4.651723e+00
4.652330e+00
4.652920e+00
4.653476e+00
4.654006e+00
4.654468e+00
4.654886e+00
4.655216e+00
4.655484e+00
4.655663e+00
4.655755e+00
4.655756e+00
4.655662e+00
4.655485e+00
4.655219e+00
4.654881e+00
4.654473e+00
4.653999e+00
4.653480e+00
4.652924e+00
4.652330e+00
4.651729e+00
4.651114e+00
4.650517e+00
4.649933e+00
4.649381e+00
4.648858e+00
4.648376e+00
4.647940e+00
4.647550e+00
4.647220e+00
4.646926e+00
4.646692e+00
4.646492e+00
4.646339e+00
4.646222e+00
4.646118e+00
4.646065e+00
4.646025e+00
4.645995e+00
4.645983e+00
4.645972e+00
4.645972e+00
4.645971e+00
4.645973e+00
4.645982e+00
4.645992e+00
4.646030e+00
4.646068e+00
4.646132e+00
4.646216e+00
4.646337e+00
4.646488e+00
4.646687e+00
4.646930e+00
4.647213e+00
4.647554e+00
4.647939e+00
4.648376e+00
4.648376e+00
4.647939e+00
4.647554e+00
4.647213e+00
4.646930e+00
4.646687e+00
4.646488e+00
4.646337e+00
4.646216e+00
4.646132e+00
4.646068e+00
4.646030e+00
4.645992e+00
4.645982e+00
4.645973e+00
4.645971e+00
4.645972e+00
4.645972e+00
4.645983e+00
4.645995e+00
4.646025e+00
4.646065e+00
4.646118e+00
4.646222e+00
4.646339e+00
4.646492e+00
4.646692e+00
4.646926e+00
4.647220e+00
4.647550e+00
4.647940e+00
4.648376e+00
4.648858e+00
4.649381e+00
4.649933e+00
4.650517e+00
4.651114e+00
4.651729e+00
4.652330e+00
4.652924e+00
4.653480e+00
4.653999e+00
4.654473e+00
4.654881e+00
4.655219e+00
4.655485e+00
4.655662e+00
4.655756e+00
4.655755e+00
4.655663e+00
4.655484e+00
4.655216e+00
4.654886e+00
4.654468e+00
4.654006e+00
4.653476e+00
4.652920e+00
4.652330e+00
4.651723e+00
4.651118e+00
4.650519e+00
4.649936e+00
4.649380e+00
4.648856e+00
4.650739e+00
4.649352e+00
4.648028e+00
4.646773e+00
4.645614e+00
4.644524e+00
4.643527e+00
4.642630e+00
4.641830e+00
4.641139e+00
4.640541e+00
4.640051e+00
4.639645e+00
4.639352e+00
4.639157e+00
4.639063e+00
4.639058e+00
4.639159e+00
4.639357e+00
4.639647e+00
4.640046e+00
4.640538e+00
4.641124e+00
4.641833e+00
4.642632e+00
4.643527e+00
4.644524e+00
4.645604e+00
4.646780e+00
4.648033e+00
4.649353e+00
4.650749e+00
4.652177e+00
4.653648e+00
4.655138e+00
4.656631e+00
4.658108e+00
4.659558e+00
4.660959e+00
4.662283e+00
4.663515e+00
4.664633e+00
4.665635e+00
4.666494e+00
4.667199e+00
4.667733e+00
4.668094e+00
4.668281e+00
4.668280e+00
4.668096e+00
4.667732e+00
4.667192e+00
4.666494e+00
4.665629e+00
4.664640e+00
4.663511e+00
4.662279e+00
4.660955e+00
4.659557e+00
4.658119e+00
4.656633e+00
4.655139e+00
4.653647e+00
4.652174e+00
4.655923e+00
4.653601e+00
4.651354e+00
4.649202e+00
4.647174e+00
4.645246e+00
4.643443e+00
4.641822e+00
4.640382e+00
4.639091e+00
4.637969e+00
4.637024e+00
4.636265e+00
4.635697e+00
4.635317e+00
4.635126e+00
4.635125e+00
4.635313e+00
4.635702e+00
4.636265e+00
4.637027e+00
4.637966e+00
4.639077e+00
4.640384e+00
4.641852e+00
4.643475e+00
4.645255e+00
4.647165e+00
4.649203e+00
4.651360e+00
4.653603e+00
4.655919e+00
4.658294e+00
4.660695e+00
4.663096e+00
4.665486e+00
4.667815e+00
4.670085e+00
4.672258e+00
4.674299e+00
4.676185e+00
4.677891e+00
4.679406e+00
4.680701e+00
4.681759e+00
4.682567e+00
4.683110e+00
4.683380e+00
4.683379e+00
4.683106e+00
4.682560e+00
4.681767e+00
4.680707e+00
4.679413e+00
4.677897e+00
4.676182e+00
4.674299e+00
4.672254e+00
4.670091e+00
4.667827e+00
4.665482e+00
4.663100e+00
4.660690e+00
4.658292e+00
4.663852e+00
4.660634e+00
4.657495e+00
4.654474e+00
4.651606e+00
4.648874e+00
4.646344e+00
4.643985e+00
4.641875e+00
4.640025e+00
4.638392e+00
4.637015e+00
4.635904e+00
4.635069e+00
4.634509e+00
4.634228e+00
4.634224e+00
4.634505e+00
4.635069e+00
4.635904e+00
4.637018e+00
4.638390e+00
4.640010e+00
4.641904e+00
4.644014e+00
4.646344e+00
4.648885e+00
4.651597e+00
4.654474e+00
4.657501e+00
4.660630e+00
4.663848e+00
4.667120e+00
4.670421e+00
4.673708e+00