<?xml version="1.0"?>
<VTKFile byte_order="LittleEndian" version="1.0" type="ImageData">
<ImageData Origin="0.0000000000000000e+00 0.0000000000000000e+00 0.0000000000000000e+00" WholeExtent="0 63 0 63 0 63" Spacing="5.0793653726577759e-01 5.0793653726577759e-01 5.0793653726577759e-01">
<Piece Extent="0 63 0 63 0 63">
<PointData Scalars="wall">
<DataArray type="Float64" Name="wall" NumberOfComponents="1" format="ascii"/>-7.439988e+00
-7.438075e+00
-7.436194e+00
-7.434355e+00
-7.432585e+00
-7.430885e+00
-7.429291e+00
-7.427804e+00
-7.426446e+00
-7.425232e+00
-7.424153e+00
-7.423254e+00
-7.422521e+00
-7.421960e+00
-7.421597e+00
-7.421404e+00
-7.421399e+00
-7.421580e+00
-7.421966e+00
-7.422524e+00
-7.423256e+00
-7.424164e+00
-7.425218e+00
-7.426440e+00
-7.427817e+00
-7.429288e+00
-7.430876e+00
-7.432580e+00
-7.434353e+00
-7.436188e+00
-7.438082e+00
-7.439988e+00
-7.441905e+00
-7.443820e+00
-7.445695e+00
-7.447526e+00
-7.449324e+00
-7.451012e+00
-7.452607e+00
-7.454093e+00
-7.455454e+00
-7.456663e+00
-7.457740e+00
-7.458640e+00
-7.459373e+00
-7.459936e+00
-7.460303e+00
-7.460501e+00
-7.460501e+00
-7.460310e+00
-7.459932e+00
-7.459375e+00
-7.458648e+00
-7.457735e+00
-7.456670e+00
-7.455447e+00
-7.454091e+00
-7.452612e+00
-7.451007e+00
-7.449320e+00
-7.447540e+00
-7.445696e+00
-7.443823e+00
-7.441916e+00
-7.425516e+00
-7.423291e+00
-7.421099e+00
-7.418950e+00
-7.416891e+00
-7.414924e+00
-7.413065e+00
-7.411337e+00
-7.409759e+00
-7.408334e+00
-7.407096e+00
-7.406041e+00
-7.405196e+00
-7.404540e+00
-7.404100e+00
-7.403877e+00
-7.403889e+00
-7.404104e+00
-7.404540e+00
-7.405191e+00
-7.406044e+00
-7.407097e+00
-7.408338e+00
-7.409760e+00
-7.411343e+00
-7.413070e+00
-7.414920e+00
-7.416902e+00
-7.418960e+00
-7.421101e+00
-7.423285e+00
-7.425515e+00
-7.427752e+00
-7.429971e+00
-7.432178e+00
-7.434305e+00
-7.436365e+00
-7.438342e+00
-7.440200e+00
-7.441929e+00
-7.443511e+00
-7.444925e+00
-7.446164e+00
-7.447225e+00
-7.448080e+00
-7.448724e+00
-7.449161e+00
-7.449383e+00
-7.449383e+00
-7.449165e+00
-7.448729e+00
-7.448093e+00
-7.447218e+00
-7.446168e+00
-7.444925e+00
-7.443511e+00
-7.441931e+00
-7.440195e+00
-7.438341e+00
-7.436370e+00
-7.434312e+00
-7.432168e+00
-7.429975e+00
-7.427741e+00
-7.409255e+00
-7.406681e+00
-7.404146e+00
-7.401658e+00
-7.399270e+00
-7.396976e+00
-7.394826e+00
-7.392832e+00
-7.391007e+00
-7.389355e+00
-7.387918e+00
-7.386711e+00
-7.385711e+00
-7.384921e+00
-7.384463e+00
-7.384198e+00
-7.384201e+00
-7.384453e+00
-7.384958e+00
-7.385715e+00
-7.386701e+00
-7.387924e+00
-7.389354e+00
-7.391003e+00
-7.392830e+00
-7.394847e+00
-7.396987e+00
-7.399268e+00
-7.401670e+00
-7.404138e+00
-7.406674e+00
-7.409261e+00
-7.411844e+00
-7.414422e+00
-7.416954e+00
-7.419451e+00
-7.421824e+00
-7.424115e+00
-7.426267e+00
-7.428263e+00
-7.430096e+00
-7.431734e+00
-7.433173e+00
-7.434399e+00
-7.435388e+00
-7.436138e+00
-7.436638e+00
-7.436894e+00
-7.436892e+00
-7.436645e+00
-7.436140e+00
-7.435380e+00
-7.434405e+00
-7.433164e+00
-7.431728e+00
-7.430095e+00
-7.428268e+00
-7.426256e+00
-7.424107e+00
-7.421834e+00
-7.419437e+00
-7.416962e+00
-7.414426e+00
-7.411839e+00
-7.391093e+00
-7.388128e+00
-7.385197e+00
-7.382339e+00
-7.379591e+00
-7.376958e+00
-7.374485e+00
-7.372170e+00
-7.370059e+00
-7.368168e+00
-7.366511e+00
-7.365102e+00
-7.363964e+00
-7.363060e+00
-7.362509e+00
-7.362222e+00
-7.362230e+00
-7.362519e+00
-7.363096e+00
-7.363963e+00
-7.365106e+00
-7.366517e+00
-7.368178e+00
-7.370065e+00
-7.372163e+00
-7.374477e+00
-7.376964e+00
-7.379583e+00
-7.382344e+00
-7.385202e+00
-7.388119e+00
-7.391092e+00
-7.394073e+00
-7.397032e+00
-7.399977e+00
-7.402839e+00
-7.405581e+00
-7.408216e+00
-7.410699e+00
-7.413002e+00
-7.415122e+00
-7.417010e+00
-7.418663e+00
-7.420071e+00
-7.421215e+00
-7.422080e+00
-7.422666e+00
-7.422961e+00
-7.422953e+00
-7.422661e+00
-7.422078e+00
-7.421208e+00
-7.420079e+00
-7.418664e+00
-7.417011e+00
-7.415114e+00
-7.413003e+00
-7.410697e+00
-7.408218e+00
-7.405588e+00
-7.402828e+00
-7.399972e+00
-7.397045e+00
-7.394074e+00
-7.370934e+00
-7.367536e+00
-7.364184e+00
-7.360902e+00
-7.357743e+00
-7.354738e+00
-7.351871e+00
-7.349233e+00
-7.346817e+00
-7.344638e+00
-7.342749e+00
-7.341133e+00
-7.339779e+00
-7.338790e+00
-7.338166e+00
-7.337815e+00
-7.337824e+00
-7.338158e+00
-7.338824e+00
-7.339820e+00
-7.341126e+00
-7.342740e+00
-7.344642e+00
-7.346814e+00
-7.349233e+00
-7.351885e+00
-7.354733e+00
-7.357741e+00
-7.360905e+00
-7.364183e+00
-7.367531e+00
-7.370940e+00
-7.374369e+00
-7.377760e+00
-7.381128e+00
-7.384392e+00
-7.387556e+00
-7.390580e+00
-7.393411e+00
-7.396060e+00
-7.398489e+00
-7.400656e+00
-7.402556e+00
-7.404172e+00
-7.405479e+00
-7.406472e+00
-7.407140e+00
-7.407480e+00
-7.407474e+00
-7.407143e+00
-7.406476e+00
-7.405478e+00
-7.404174e+00
-7.402570e+00
-7.400650e+00
-7.398486e+00
-7.396070e+00
-7.393417e+00
-7.390581e+00
-7.387563e+00
-7.384400e+00
-7.381120e+00
-7.377770e+00
-7.374359e+00
-7.348700e+00
-7.344815e+00
-7.340989e+00
-7.337249e+00
-7.333642e+00
-7.330207e+00
-7.326961e+00
-7.323942e+00
-7.321177e+00
-7.318694e+00
-7.316516e+00
-7.314689e+00
-7.313183e+00
-7.312050e+00
-7.311289e+00
-7.310905e+00
-7.310915e+00
-7.311296e+00
-7.312059e+00
-7.313189e+00
-7.314686e+00
-7.316532e+00
-7.318700e+00
-7.321170e+00
-7.323937e+00
-7.326948e+00
-7.330199e+00
-7.333642e+00
-7.337252e+00
-7.340980e+00
-7.344820e+00
-7.348699e+00
-7.352596e+00
-7.356504e+00
-7.360330e+00
-7.364060e+00
-7.367671e+00
-7.371119e+00
-7.374362e+00
-7.377379e+00
-7.380150e+00
-7.382625e+00
-7.384797e+00
-7.386635e+00
-7.388132e+00
-7.389269e+00
-7.390029e+00
-7.390407e+00
-7.390403e+00
-7.390025e+00
-7.389264e+00
-7.388125e+00
-7.386633e+00
-7.384800e+00
-7.382623e+00
-7.380154e+00
-7.377390e+00
-7.374365e+00
-7.371112e+00
-7.367678e+00
-7.364059e+00
-7.360325e+00
-7.356496e+00
-7.352609e+00
-7.324338e+00
-7.319913e+00
-7.315563e+00
-7.311321e+00
-7.307220e+00
-7.303308e+00
-7.299635e+00
-7.296184e+00
-7.293050e+00
-7.290247e+00
-7.287775e+00
-7.285681e+00
-7.283993e+00
-7.282698e+00
-7.281836e+00
-7.281405e+00
-7.281400e+00
-7.281832e+00
-7.282700e+00
-7.283984e+00
-7.285683e+00
-7.287776e+00
-7.290241e+00
-7.293054e+00
-7.296192e+00
-7.299620e+00
-7.303308e+00
-7.307231e+00
-7.311321e+00
-7.315558e+00
-7.319919e+00
-7.324337e+00
-7.328763e+00
-7.333199e+00
-7.337527e+00
-7.341773e+00
-7.345867e+00
-7.349782e+00
-7.353469e+00
-7.356906e+00
-7.360034e+00
-7.362848e+00
-7.365315e+00
-7.367403e+00
-7.369102e+00
-7.370391e+00
-7.371257e+00
-7.371691e+00
-7.371696e+00
-7.371255e+00
-7.370389e+00
-7.369107e+00
-7.367406e+00
-7.365315e+00
-7.362864e+00
-7.360030e+00
-7.356896e+00
-7.353476e+00
-7.349782e+00
-7.345870e+00
-7.341777e+00
-7.337528e+00
-7.333178e+00
-7.328766e+00
-7.297776e+00
-7.292777e+00
-7.287870e+00
-7.283071e+00
-7.278439e+00
-7.274016e+00
-7.269860e+00
-7.265980e+00
-7.262438e+00
-7.259246e+00
-7.256468e+00
-7.254099e+00
-7.252182e+00
-7.250721e+00
-7.249743e+00
-7.249256e+00
-7.249255e+00
-7.249752e+00
-7.250731e+00
-7.252192e+00
-7.254112e+00
-7.256471e+00
-7.259247e+00
-7.262428e+00
-7.265975e+00
-7.269853e+00
-7.274009e+00
-7.278440e+00
-7.283065e+00
-7.287867e+00
-7.292776e+00
-7.297762e+00
-7.302792e+00
-7.307769e+00
-7.312693e+00
-7.317491e+00
-7.322117e+00
-7.326542e+00
-7.330708e+00
-7.334590e+00
-7.338132e+00
-7.341316e+00
-7.344102e+00
-7.346472e+00
-7.348391e+00
-7.349842e+00
-7.350814e+00
-7.351305e+00
-7.351306e+00
-7.350810e+00
-7.349833e+00
-7.348380e+00
-7.346462e+00
-7.344096e+00
-7.341306e+00
-7.338139e+00
-7.334598e+00
-7.330713e+00
-7.326548e+00
-7.322122e+00
-7.317489e+00
-7.312688e+00
-7.307774e+00
-7.302785e+00
-7.269036e+00
-7.263428e+00
-7.257891e+00
-7.252495e+00
-7.247287e+00
-7.242312e+00
-7.237626e+00
-7.233279e+00
-7.229280e+00
-7.225700e+00
-7.222581e+00
-7.219912e+00
-7.217754e+00
-7.216121e+00
-7.215020e+00
-7.214465e+00
-7.214464e+00
-7.215012e+00
-7.216111e+00
-7.217753e+00
-7.219911e+00
-7.222564e+00
-7.225702e+00
-7.229280e+00
-7.233265e+00
-7.237623e+00
-7.242321e+00
-7.247290e+00
-7.252500e+00
-7.257893e+00
-7.263428e+00
-7.269036e+00
-7.274693e+00
-7.280268e+00
-7.285813e+00
-7.291208e+00
-7.296419e+00
-7.301384e+00
-7.306085e+00
-7.310440e+00
-7.314425e+00
-7.318004e+00
-7.321131e+00
-7.323793e+00
-7.325951e+00
-7.327584e+00
-7.328689e+00
-7.329241e+00
-7.329241e+00
-7.328691e+00
-7.327590e+00
-7.325952e+00
-7.323794e+00
-7.321135e+00
-7.317999e+00
-7.314437e+00
-7.310438e+00
-7.306078e+00
-7.301398e+00
-7.296423e+00
-7.291210e+00
-7.285820e+00
-7.280283e+00
-7.274672e+00
-7.238134e+00
-7.231859e+00
-7.225674e+00
-7.219624e+00
-7.213799e+00
-7.208231e+00
-7.202984e+00
-7.198108e+00
-7.193645e+00
-7.189651e+00
-7.186128e+00
-7.183159e+00
-7.180739e+00
-7.178917e+00
-7.177687e+00
-7.177058e+00
-7.177063e+00
-7.177678e+00
-7.178919e+00
-7.180756e+00
-7.183171e+00
-7.186134e+00
-7.189637e+00
-7.193645e+00
-7.198102e+00
-7.202991e+00
-7.208235e+00
-7.213790e+00
-7.219624e+00
-7.225667e+00
-7.231839e+00
-7.238136e+00
-7.244450e+00
-7.250709e+00
-7.256915e+00
-7.262959e+00
-7.268787e+00
-7.274355e+00
-7.279603e+00
-7.284475e+00
-7.288940e+00
-7.292942e+00
-7.296456e+00
-7.299435e+00
-7.301849e+00
-7.303678e+00
-7.304901e+00
-7.305523e+00
-7.305519e+00
-7.304907e+00
-7.303677e+00
-7.301837e+00
-7.299427e+00
-7.296450e+00
-7.292944e+00
-7.288948e+00
-7.284475e+00
-7.279609e+00
-7.274351e+00
-7.268788e+00
-7.262953e+00
-7.256920e+00
-7.250735e+00
-7.244444e+00
-7.205135e+00
-7.198145e+00
-7.191255e+00
-7.184520e+00
-7.178030e+00
-7.171834e+00
-7.165981e+00
-7.160560e+00
-7.155588e+00
-7.151118e+00
-7.147224e+00
-7.143909e+00
-7.141212e+00
-7.139179e+00
-7.137809e+00
-7.137112e+00
-7.137117e+00
-7.137821e+00
-7.139173e+00
-7.141218e+00
-7.143905e+00
-7.147217e+00
-7.151133e+00
-7.155584e+00
-7.160549e+00
-7.165992e+00
-7.171833e+00
-7.178028e+00
-7.184530e+00
-7.191268e+00
-7.198143e+00
-7.205139e+00
-7.212172e+00
-7.219145e+00
-7.226062e+00
-7.232783e+00
-7.239270e+00
-7.245479e+00
-7.251313e+00
-7.256750e+00
-7.261725e+00
-7.266192e+00
-7.270082e+00
-7.273401e+00
-7.276088e+00
-7.278128e+00
-7.279507e+00
-7.280191e+00
-7.280187e+00
-7.279503e+00
-7.278132e+00
-7.276086e+00
-7.273400e+00
-7.270088e+00
-7.266177e+00
-7.261726e+00
-7.256756e+00
-7.251309e+00
-7.245471e+00
-7.239279e+00
-7.232780e+00
-7.226057e+00
-7.219167e+00
-7.212163e+00
-7.170133e+00
-7.162405e+00
-7.154759e+00
-7.147310e+00
-7.140112e+00
-7.133238e+00
-7.126764e+00
-7.120738e+00
-7.115229e+00
-7.110296e+00
-7.105959e+00
-7.102295e+00
-7.099313e+00
-7.097050e+00
-7.095529e+00
-7.094769e+00
-7.094768e+00
-7.095527e+00
-7.097053e+00
-7.099309e+00
-7.102297e+00
-7.105968e+00
-7.110288e+00
-7.115236e+00
-7.120744e+00
-7.126761e+00
-7.133243e+00
-7.140114e+00
-7.147302e+00
-7.154788e+00
-7.162398e+00
-7.170147e+00
-7.177956e+00
-7.185685e+00
-7.193338e+00
-7.200796e+00
-7.207988e+00
-7.214856e+00
-7.221335e+00
-7.227361e+00
-7.232863e+00
-7.237800e+00
-7.242136e+00
-7.245805e+00
-7.248793e+00
-7.251053e+00
-7.252568e+00
-7.253335e+00
-7.253336e+00
-7.252571e+00
-7.251050e+00
-7.248791e+00
-7.245809e+00
-7.242135e+00
-7.237809e+00
-7.232864e+00
-7.227355e+00
-7.221337e+00
-7.214858e+00
-7.207989e+00
-7.200795e+00
-7.193341e+00
-7.185694e+00
-7.177947e+00
-7.133296e+00
-7.124767e+00
-7.116343e+00
-7.108114e+00
-7.100182e+00
-7.092606e+00
-7.085463e+00
-7.078809e+00
-7.072747e+00
-7.067289e+00
-7.062528e+00
-7.058469e+00
-7.055180e+00
-7.052690e+00
-7.051014e+00
-7.050167e+00
-7.050169e+00
-7.051001e+00
-7.052679e+00
-7.055185e+00
-7.058460e+00
-7.062514e+00
-7.067285e+00
-7.072742e+00
-7.078815e+00
-7.085464e+00
-7.092605e+00
-7.100180e+00
-7.108113e+00
-7.116349e+00
-7.124762e+00
-7.133315e+00
-7.141901e+00
-7.150445e+00
-7.158879e+00
-7.167105e+00
-7.175039e+00
-7.182627e+00
-7.189761e+00
-7.196405e+00
-7.202480e+00
-7.207922e+00
-7.212697e+00
-7.216759e+00
-7.220036e+00
-7.222532e+00
-7.224206e+00
-7.225053e+00
-7.225052e+00
-7.224214e+00
-7.222538e+00
-7.220037e+00
-7.216755e+00
-7.212706e+00
-7.207933e+00
-7.202430e+00
-7.196411e+00
-7.189761e+00
-7.182629e+00
-7.175045e+00
-7.167106e+00
-7.158885e+00
-7.150461e+00
-7.141903e+00
-7.094813e+00
-7.085426e+00
-7.076179e+00
-7.067162e+00
-7.058441e+00
-7.050124e+00
-7.042295e+00
-7.034996e+00
-7.028331e+00
-7.022356e+00
-7.017103e+00
-7.012662e+00
-7.009060e+00
-7.006320e+00
-7.004480e+00
-7.003562e+00
-7.003551e+00
-7.004479e+00
-7.006320e+00
-7.009057e+00
-7.012665e+00
-7.017110e+00
-7.022348e+00
-7.028327e+00
-7.035006e+00
-7.042288e+00
-7.050127e+00
-7.058443e+00
-7.067166e+00
-7.076179e+00
-7.085438e+00
-7.094811e+00
-7.104235e+00
-7.113612e+00
-7.122871e+00
-7.131896e+00
-7.140613e+00
-7.148921e+00
-7.156763e+00
-7.164048e+00
-7.170716e+00
-7.176702e+00
-7.181936e+00
-7.186386e+00
-7.189992e+00
-7.192731e+00
-7.194570e+00
-7.195492e+00
-7.195498e+00
-7.194571e+00
-7.192731e+00
-7.189998e+00
-7.186384e+00
-7.181938e+00
-7.176707e+00
-7.170677e+00
-7.164051e+00
-7.156769e+00
-7.148917e+00
-7.140605e+00
-7.131895e+00
-7.122872e+00
-7.113625e+00
-7.104247e+00
-7.054867e+00
-7.044627e+00
-7.034525e+00
-7.024675e+00
-7.015169e+00
-7.006074e+00
-6.997510e+00
-6.989554e+00
-6.982268e+00
-6.975741e+00
-6.970016e+00
-6.965174e+00
-6.961224e+00
-6.958229e+00
-6.956219e+00
-6.955218e+00
-6.955223e+00
-6.956228e+00
-6.958241e+00
-6.961218e+00
-6.965159e+00
-6.970024e+00
-6.975740e+00
-6.982281e+00
-6.989557e+00
-6.997511e+00
-7.006074e+00
-7.015158e+00
-7.024661e+00
-7.034532e+00
-7.044628e+00
-7.054875e+00
-7.065177e+00
-7.075416e+00
-7.085524e+00
-7.095382e+00
-7.104894e+00
-7.113974e+00
-7.122541e+00
-7.130501e+00
-7.137788e+00
-7.144320e+00
-7.150031e+00
-7.154889e+00
-7.158831e+00
-7.161826e+00
-7.163833e+00
-7.164846e+00
-7.164844e+00
-7.163829e+00
-7.161820e+00
-7.158834e+00
-7.154898e+00
-7.150035e+00
-7.144313e+00
-7.137744e+00
-7.130498e+00
-7.122541e+00
-7.113977e+00
-7.104903e+00
-7.095382e+00
-7.085523e+00
-7.075422e+00
-7.065178e+00
-7.013781e+00
-7.002655e+00
-6.991677e+00
-6.980972e+00
-6.970633e+00
-6.960763e+00
-6.951449e+00
-6.942799e+00
-6.934887e+00
-6.927793e+00
-6.921576e+00
-6.916304e+00
-6.912005e+00
-6.908759e+00
-6.906576e+00
-6.905487e+00
-6.905471e+00
-6.906570e+00
-6.908750e+00
-6.912009e+00
-6.916291e+00
-6.921561e+00
-6.927783e+00
-6.934880e+00
-6.942808e+00
-6.951453e+00
-6.960756e+00
-6.970626e+00
-6.980958e+00
-6.991678e+00
-7.002659e+00
-7.013799e+00
-7.024989e+00
-7.036115e+00
-7.047108e+00
-7.057809e+00
-7.068160e+00
-7.078027e+00
-7.087332e+00
-7.095982e+00
-7.103889e+00
-7.110991e+00
-7.117219e+00
-7.122491e+00
-7.126773e+00
-7.130019e+00
-7.132204e+00
-7.133299e+00
-7.133307e+00
-7.132205e+00
-7.130023e+00
-7.126774e+00
-7.122494e+00
-7.117218e+00
-7.110994e+00
-7.103860e+00
-7.095983e+00
-7.087336e+00
-7.078031e+00
-7.068165e+00
-7.057807e+00
-7.047101e+00
-7.036127e+00
-7.024994e+00
-6.971870e+00
-6.959827e+00
-6.947954e+00
-6.936372e+00
-6.925192e+00
-6.914518e+00
-6.904448e+00
-6.895092e+00
-6.886532e+00
-6.878854e+00
-6.872143e+00
-6.866420e+00
-6.861790e+00
-6.858276e+00
-6.855916e+00
-6.854726e+00
-6.854733e+00
-6.855913e+00
-6.858277e+00
-6.861791e+00
-6.866423e+00
-6.872126e+00
-6.878851e+00
-6.886539e+00
-6.895091e+00
-6.904449e+00
-6.914514e+00
-6.925198e+00
-6.936371e+00
-6.947961e+00
-6.959828e+00
-6.971878e+00
-6.983982e+00
-6.996014e+00
-7.007900e+00
-7.019484e+00
-7.030665e+00
-7.041337e+00
-7.051400e+00
-7.060756e+00
-7.069313e+00
-7.076996e+00
-7.083723e+00
-7.089419e+00
-7.094060e+00
-7.097572e+00
-7.099934e+00
-7.101125e+00
-7.101120e+00
-7.099936e+00
-7.097573e+00
-7.094060e+00
-7.089430e+00
-7.083725e+00
-7.076997e+00
-7.069288e+00
-7.060759e+00
-7.051403e+00
-7.041350e+00
-7.030658e+00
-7.019478e+00
-7.007895e+00
-6.996024e+00
-6.983977e+00
-6.929481e+00
-6.916516e+00
-6.903740e+00
-6.891278e+00
-6.879231e+00
-6.867742e+00
-6.856922e+00
-6.846834e+00
-6.837637e+00
-6.829378e+00
-6.822131e+00
-6.815987e+00
-6.811013e+00
-6.807226e+00
-6.804688e+00
-6.803411e+00
-6.803407e+00
-6.804682e+00
-6.807233e+00
-6.811008e+00
-6.815987e+00
-6.822137e+00
-6.829374e+00
-6.837633e+00
-6.846852e+00
-6.856920e+00
-6.867748e+00
-6.879254e+00
-6.891272e+00
-6.903735e+00
-6.916515e+00
-6.929474e+00
-6.942508e+00
-6.955465e+00
-6.968256e+00
-6.980711e+00
-6.992757e+00
-7.004241e+00
-7.015068e+00
-7.025140e+00
-7.034348e+00
-7.042617e+00
-7.049857e+00
-7.055995e+00
-7.060976e+00
-7.064762e+00
-7.067304e+00
-7.068578e+00
-7.068581e+00
-7.067303e+00
-7.064761e+00
-7.060982e+00
-7.055990e+00
-7.049848e+00
-7.042618e+00
-7.034303e+00
-7.025141e+00
-7.015074e+00
-7.004241e+00
-6.992745e+00
-6.980717e+00
-6.968246e+00
-6.955474e+00
-6.942511e+00
-6.887004e+00
-6.873110e+00
-6.859432e+00
-6.846082e+00
-6.833195e+00
-6.820886e+00
-6.809288e+00
-6.798499e+00
-6.788635e+00
-6.779783e+00
-6.772034e+00
-6.765463e+00
-6.760127e+00
-6.756073e+00
-6.753346e+00
-6.751984e+00
-6.751991e+00
-6.753345e+00
-6.756067e+00
-6.760117e+00
-6.765455e+00
-6.772032e+00
-6.779787e+00
-6.788645e+00
-6.798504e+00
-6.809286e+00
-6.820884e+00
-6.833176e+00
-6.846089e+00
-6.859431e+00
-6.873113e+00
-6.886995e+00
-6.900953e+00
-6.914825e+00
-6.928506e+00
-6.941873e+00
-6.954753e+00
-6.967061e+00
-6.978661e+00
-6.989454e+00
-6.999316e+00
-7.008168e+00
-7.015912e+00
-7.022489e+00
-7.027828e+00
-7.031880e+00
-7.034602e+00
-7.035974e+00
-7.035971e+00
-7.034597e+00
-7.031880e+00
-7.027832e+00
-7.022492e+00
-7.015906e+00
-7.008164e+00
-6.999273e+00
-6.989446e+00
-6.978661e+00
-6.967068e+00
-6.954761e+00
-6.941876e+00
-6.928521e+00
-6.914834e+00
-6.900950e+00
-6.844853e+00
-6.830065e+00
-6.815475e+00
-6.801249e+00
-6.787512e+00
-6.774395e+00
-6.762049e+00
-6.750551e+00
-6.740031e+00
-6.730606e+00
-6.722333e+00
-6.715334e+00
-6.709630e+00
-6.705315e+00
-6.702425e+00
-6.700963e+00
-6.700961e+00
-6.702418e+00
-6.705330e+00
-6.709640e+00
-6.715331e+00
-6.722345e+00
-6.730595e+00
-6.740022e+00
-6.750546e+00
-6.762039e+00
-6.774403e+00
-6.787507e+00
-6.801262e+00
-6.815474e+00
-6.830060e+00
-6.844858e+00
-6.859737e+00
-6.874521e+00
-6.889101e+00
-6.903334e+00
-6.917072e+00
-6.930184e+00
-6.942551e+00
-6.954040e+00
-6.964547e+00
-6.973980e+00
-6.982251e+00
-6.989256e+00
-6.994949e+00
-6.999269e+00
-7.002159e+00
-7.003615e+00
-7.003619e+00
-7.002164e+00
-6.999259e+00
-6.994944e+00
-6.989255e+00
-6.982244e+00
-6.973994e+00
-6.964519e+00
-6.954040e+00
-6.942551e+00
-6.930180e+00
-6.917077e+00
-6.903325e+00
-6.889099e+00
-6.874524e+00
-6.859729e+00
-6.803504e+00
-6.787808e+00
-6.772347e+00
-6.757253e+00
-6.742697e+00
-6.728783e+00
-6.715669e+00
-6.703490e+00
-6.692333e+00
-6.682327e+00
-6.673574e+00
-6.666142e+00
-6.660094e+00
-6.655523e+00
-6.652444e+00
-6.650901e+00
-6.650908e+00
-6.652454e+00
-6.655521e+00
-6.660102e+00
-6.666136e+00
-6.673566e+00
-6.682336e+00
-6.692333e+00
-6.703481e+00
-6.715669e+00
-6.728793e+00
-6.742686e+00
-6.757279e+00
-6.772350e+00
-6.787810e+00
-6.803509e+00
-6.819283e+00
-6.834958e+00
-6.850432e+00
-6.865527e+00
-6.880087e+00
-6.893998e+00
-6.907103e+00
-6.919292e+00
-6.930444e+00
-6.940444e+00
-6.949208e+00
-6.956642e+00
-6.962667e+00
-6.967249e+00
-6.970331e+00
-6.971875e+00
-6.971875e+00
-6.970328e+00
-6.967254e+00
-6.962673e+00
-6.956647e+00
-6.949212e+00
-6.940454e+00
-6.930414e+00
-6.919295e+00
-6.907104e+00
-6.893997e+00
-6.880102e+00
-6.865514e+00
-6.850430e+00
-6.834964e+00
-6.819272e+00
-6.763409e+00
-6.746843e+00
-6.730524e+00
-6.714600e+00
-6.699218e+00
-6.684548e+00
-6.670715e+00
-6.657845e+00
-6.646090e+00
-6.635528e+00
-6.626281e+00
-6.618434e+00
-6.612065e+00
-6.607237e+00
-6.603986e+00
-6.602363e+00
-6.602358e+00
-6.603990e+00
-6.607239e+00
-6.612070e+00
-6.618439e+00
-6.626282e+00
-6.635523e+00
-6.646085e+00
-6.657853e+00
-6.670715e+00
-6.684562e+00
-6.699226e+00
-6.714597e+00
-6.730526e+00
-6.746848e+00
-6.763416e+00
-6.780062e+00
-6.796604e+00
-6.812922e+00
-6.828864e+00
-6.844230e+00
-6.858907e+00
-6.872740e+00
-6.885604e+00
-6.897373e+00
-6.907926e+00
-6.917175e+00
-6.925015e+00
-6.931379e+00
-6.936215e+00
-6.939460e+00
-6.941096e+00
-6.941096e+00
-6.939461e+00
-6.936216e+00
-6.931386e+00
-6.925014e+00
-6.917171e+00
-6.907923e+00
-6.897341e+00
-6.885607e+00
-6.872742e+00
-6.858906e+00
-6.844231e+00
-6.828850e+00
-6.812930e+00
-6.796604e+00
-6.780050e+00
-6.725035e+00
-6.707640e+00
-6.690503e+00
-6.673770e+00
-6.657619e+00
-6.642217e+00
-6.627687e+00
-6.614171e+00
-6.601810e+00
-6.590731e+00
-6.581017e+00
-6.572779e+00
-6.566092e+00
-6.561030e+00
-6.557616e+00
-6.555903e+00
-6.555895e+00
-6.557608e+00
-6.561023e+00
-6.566092e+00
-6.572779e+00
-6.581024e+00
-6.590727e+00
-6.601817e+00
-6.614176e+00
-6.627680e+00
-6.642200e+00
-6.657630e+00
-6.673770e+00
-6.690492e+00
-6.707636e+00
-6.725026e+00
-6.742498e+00
-6.759898e+00
-6.777035e+00
-6.793750e+00
-6.809906e+00
-6.825318e+00
-6.839851e+00
-6.853364e+00
-6.865718e+00
-6.876797e+00
-6.886513e+00
-6.894750e+00
-6.901430e+00
-6.906514e+00
-6.909922e+00
-6.911635e+00
-6.911636e+00
-6.909923e+00
-6.906516e+00
-6.901437e+00
-6.894744e+00
-6.886515e+00
-6.876803e+00
-6.865689e+00
-6.853357e+00
-6.839849e+00
-6.825316e+00
-6.809905e+00
-6.793760e+00
-6.777043e+00
-6.759899e+00
-6.742505e+00
-6.688839e+00
-6.670679e+00
-6.652761e+00
-6.635283e+00
-6.618405e+00
-6.602304e+00
-6.587111e+00
-6.572995e+00
-6.560080e+00
-6.548494e+00
-6.538351e+00
-6.529743e+00
-6.522755e+00
-6.517458e+00
-6.513896e+00
-6.512107e+00
-6.512099e+00
-6.513889e+00
-6.517447e+00
-6.522748e+00
-6.529738e+00
-6.538345e+00
-6.548499e+00
-6.560092e+00
-6.573004e+00
-6.587117e+00
-6.602286e+00
-6.618416e+00
-6.635283e+00
-6.652759e+00
-6.670670e+00
-6.688841e+00
-6.707108e+00
-6.725278e+00
-6.743196e+00
-6.760668e+00
-6.777551e+00
-6.793651e+00
-6.808846e+00
-6.822967e+00
-6.835878e+00
-6.847456e+00
-6.857605e+00
-6.866213e+00
-6.873198e+00
-6.878504e+00
-6.882070e+00
-6.883863e+00
-6.883862e+00
-6.882074e+00
-6.878509e+00
-6.873206e+00
-6.866211e+00
-6.857611e+00
-6.847456e+00
-6.835844e+00
-6.822955e+00
-6.808840e+00
-6.793655e+00
-6.777551e+00
-6.760678e+00
-6.743206e+00
-6.725291e+00
-6.707114e+00
-6.655315e+00
-6.636411e+00
-6.617795e+00
-6.599612e+00
-6.582060e+00
-6.565322e+00
-6.549519e+00
-6.534843e+00
-6.521412e+00
-6.509357e+00
-6.498816e+00
-6.489864e+00
-6.482592e+00
-6.477088e+00
-6.473369e+00
-6.471502e+00
-6.471515e+00
-6.473376e+00
-6.477069e+00
-6.482590e+00
-6.489859e+00
-6.498805e+00
-6.509369e+00
-6.521402e+00
-6.534832e+00
-6.549519e+00
-6.565305e+00
-6.582076e+00
-6.599620e+00
-6.617793e+00
-6.636412e+00
-6.655316e+00
-6.674313e+00
-6.693209e+00
-6.711843e+00
-6.730012e+00
-6.747564e+00
-6.764313e+00
-6.780100e+00
-6.794783e+00
-6.808227e+00
-6.820267e+00
-6.830817e+00
-6.839774e+00
-6.847037e+00
-6.852552e+00
-6.856264e+00
-6.858118e+00
-6.858117e+00
-6.856259e+00
-6.852560e+00
-6.847042e+00
-6.839771e+00
-6.830827e+00
-6.820268e+00
-6.808191e+00
-6.794787e+00
-6.780104e+00
-6.764318e+00
-6.747570e+00
-6.730021e+00
-6.711853e+00
-6.693217e+00
-6.674305e+00
-6.624884e+00
-6.605314e+00
-6.586044e+00
-6.567241e+00
-6.549075e+00
-6.531740e+00
-6.515400e+00
-6.500213e+00
-6.486313e+00
-6.473837e+00
-6.462919e+00
-6.453651e+00
-6.446139e+00
-6.440417e+00
-6.436579e+00
-6.434664e+00
-6.434664e+00
-6.436591e+00
-6.440425e+00
-6.446137e+00
-6.453660e+00
-6.462918e+00
-6.473836e+00
-6.486302e+00
-6.500201e+00
-6.515399e+00
-6.531736e+00
-6.549091e+00
-6.567234e+00
-6.586048e+00
-6.605323e+00
-6.624886e+00
-6.644544e+00
-6.664100e+00
-6.683379e+00
-6.702186e+00
-6.720350e+00
-6.737682e+00
-6.754020e+00
-6.769215e+00
-6.783118e+00
-6.795587e+00
-6.806505e+00
-6.815774e+00
-6.823290e+00
-6.828999e+00
-6.832833e+00
-6.834758e+00
-6.834757e+00
-6.832828e+00
-6.828997e+00
-6.823295e+00
-6.815772e+00
-6.806508e+00
-6.795588e+00
-6.783091e+00
-6.769219e+00
-6.754024e+00
-6.737683e+00
-6.720344e+00
-6.702187e+00
-6.683369e+00
-6.664092e+00
-6.644536e+00
-6.597954e+00
-6.577805e+00
-6.557947e+00
-6.538592e+00
-6.519882e+00
-6.502031e+00
-6.485209e+00
-6.469551e+00
-6.455238e+00
-6.442409e+00
-6.431153e+00
-6.421612e+00
-6.413876e+00
-6.407980e+00
-6.404039e+00
-6.402067e+00
-6.402057e+00
-6.404041e+00
-6.408000e+00
-6.413863e+00
-6.421609e+00
-6.431163e+00
-6.442400e+00
-6.455240e+00
-6.469552e+00
-6.485209e+00
-6.502026e+00
-6.519906e+00
-6.538584e+00
-6.557953e+00
-6.577813e+00
-6.597950e+00
-6.618192e+00
-6.638342e+00
-6.658196e+00
-6.677554e+00
-6.696269e+00
-6.714108e+00
-6.730943e+00
-6.746587e+00
-6.760896e+00
-6.773742e+00
-6.784986e+00
-6.794529e+00
-6.802272e+00
-6.808146e+00
-6.812101e+00
-6.814083e+00
-6.814086e+00
-6.812100e+00
-6.808148e+00
-6.802283e+00
-6.794529e+00
-6.784995e+00
-6.773750e+00
-6.760880e+00
-6.746587e+00
-6.730947e+00
-6.714111e+00
-6.696260e+00
-6.677565e+00
-6.658181e+00
-6.638334e+00
-6.618196e+00
-6.574898e+00
-6.554255e+00
-6.533904e+00
-6.514068e+00
-6.494896e+00
-6.476604e+00
-6.459363e+00
-6.443318e+00
-6.428651e+00
-6.415499e+00
-6.403969e+00
-6.394191e+00
-6.386260e+00
-6.380221e+00
-6.376183e+00
-6.374150e+00
-6.374152e+00
-6.376185e+00
-6.380238e+00
-6.386250e+00
-6.394188e+00
-6.403976e+00
-6.415494e+00
-6.428653e+00
-6.443320e+00
-6.459365e+00
-6.476598e+00
-6.494919e+00
-6.514061e+00
-6.533911e+00
-6.554259e+00
-6.574899e+00
-6.595643e+00
-6.616292e+00
-6.636636e+00
-6.656476e+00
-6.675651e+00
-6.693935e+00
-6.711188e+00
-6.727220e+00
-6.741883e+00
-6.755047e+00
-6.766567e+00
-6.776350e+00
-6.784284e+00
-6.790304e+00
-6.794357e+00
-6.796388e+00
-6.796389e+00
-6.794356e+00
-6.790306e+00
-6.784294e+00
-6.776350e+00
-6.766579e+00
-6.755055e+00
-6.741867e+00
-6.727220e+00
-6.711188e+00
-6.693938e+00
-6.675645e+00
-6.656486e+00
-6.636623e+00
-6.616284e+00
-6.595642e+00
-6.556046e+00
-6.534995e+00
-6.514242e+00
-6.494013e+00
-6.474463e+00
-6.455808e+00
-6.438211e+00
-6.421865e+00
-6.406908e+00
-6.393484e+00
-6.381738e+00
-6.371767e+00
-6.363687e+00
-6.357520e+00
-6.353402e+00
-6.351329e+00
-6.351330e+00
-6.353404e+00
-6.357524e+00
-6.363669e+00
-6.371763e+00
-6.381730e+00
-6.393490e+00
-6.406909e+00
-6.421866e+00
-6.438229e+00
-6.455802e+00
-6.474485e+00
-6.494007e+00
-6.514249e+00
-6.534995e+00
-6.556048e+00
-6.577202e+00
-6.598247e+00
-6.618992e+00
-6.639238e+00
-6.658791e+00
-6.677437e+00
-6.695032e+00
-6.711380e+00
-6.726334e+00
-6.739758e+00
-6.751505e+00
-6.761482e+00
-6.769573e+00
-6.775706e+00
-6.779845e+00
-6.781917e+00
-6.781918e+00
-6.779844e+00
-6.775714e+00
-6.769582e+00
-6.761482e+00
-6.751509e+00
-6.739751e+00
-6.726317e+00
-6.711380e+00
-6.695027e+00
-6.677441e+00
-6.658786e+00
-6.639256e+00
-6.618992e+00
-6.598251e+00
-6.577200e+00
-6.541664e+00
-6.520301e+00
-6.499241e+00
-6.478710e+00
-6.458873e+00
-6.439942e+00
-6.422084e+00
-6.405497e+00
-6.390318e+00
-6.376695e+00
-6.364776e+00
-6.354657e+00
-6.346455e+00
-6.340200e+00
-6.336021e+00
-6.333917e+00
-6.333919e+00
-6.336023e+00
-6.340202e+00
-6.346440e+00
-6.354654e+00
-6.364767e+00
-6.376703e+00
-6.390320e+00
-6.405498e+00
-6.422103e+00
-6.439937e+00
-6.458894e+00
-6.478706e+00
-6.499248e+00
-6.520299e+00
-6.541665e+00
-6.563129e+00
-6.584489e+00
-6.605540e+00
-6.626086e+00
-6.645926e+00
-6.664851e+00
-6.682705e+00
-6.699296e+00
-6.714470e+00
-6.728094e+00
-6.740014e+00
-6.750138e+00
-6.758349e+00
-6.764573e+00
-6.768774e+00
-6.770878e+00
-6.770877e+00
-6.768773e+00
-6.764581e+00
-6.758358e+00
-6.750139e+00
-6.740018e+00
-6.728086e+00
-6.714454e+00
-6.699296e+00
-6.682700e+00
-6.664854e+00
-6.645923e+00
-6.626103e+00
-6.605541e+00
-6.584493e+00
-6.563130e+00
-6.531957e+00
-6.510384e+00
-6.489117e+00
-6.468384e+00
-6.448352e+00
-6.429235e+00
-6.411201e+00
-6.394450e+00
-6.379123e+00
-6.365365e+00
-6.353329e+00
-6.343111e+00
-6.334828e+00
-6.328511e+00
-6.324291e+00
-6.322166e+00
-6.322168e+00
-6.324293e+00
-6.328514e+00
-6.334812e+00
-6.343108e+00
-6.353320e+00
-6.365373e+00
-6.379125e+00
-6.394452e+00
-6.411220e+00
-6.429229e+00
-6.448373e+00
-6.468380e+00
-6.489124e+00
-6.510383e+00
-6.531959e+00
-6.553634e+00
-6.575203e+00
-6.596462e+00
-6.617210e+00
-6.637245e+00
-6.656356e+00
-6.674387e+00
-6.691141e+00
-6.706468e+00
-6.720222e+00
-6.732259e+00
-6.742483e+00
-6.750775e+00
-6.757060e+00
-6.761302e+00
-6.763426e+00
-6.763426e+00
-6.761286e+00
-6.757068e+00
-6.750783e+00
-6.742483e+00
-6.732264e+00
-6.720214e+00
-6.706447e+00
-6.691140e+00
-6.674381e+00
-6.656360e+00
-6.637243e+00
-6.617227e+00
-6.596463e+00
-6.575208e+00
-6.553635e+00
-6.527066e+00
-6.505389e+00
-6.484018e+00
-6.463165e+00
-6.443047e+00
-6.423842e+00
-6.405719e+00
-6.388886e+00
-6.373484e+00
-6.359659e+00
-6.347563e+00
-6.337295e+00
-6.328954e+00
-6.322624e+00
-6.318383e+00
-6.316242e+00
-6.316250e+00
-6.318380e+00
-6.322626e+00
-6.328956e+00
-6.337292e+00
-6.347554e+00
-6.359666e+00
-6.373486e+00
-6.388888e+00
-6.405738e+00
-6.423836e+00
-6.443074e+00
-6.463180e+00
-6.484025e+00
-6.505388e+00
-6.527070e+00
-6.548851e+00
-6.570527e+00
-6.591890e+00
-6.612735e+00
-6.632873e+00
-6.652078e+00
-6.670197e+00
-6.687033e+00
-6.702435e+00
-6.716256e+00
-6.728353e+00
-6.738627e+00
-6.746960e+00
-6.753276e+00
-6.757538e+00
-6.759673e+00
-6.759670e+00
-6.757522e+00
-6.753284e+00
-6.746957e+00
-6.738627e+00
-6.728357e+00
-6.716249e+00
-6.702415e+00
-6.687033e+00
-6.670191e+00
-6.652081e+00
-6.632870e+00
-6.612742e+00
-6.591890e+00
-6.570531e+00
-6.548847e+00
-6.527066e+00
-6.505389e+00
-6.484018e+00
-6.463165e+00
-6.443047e+00
-6.423842e+00
-6.405719e+00
-6.388886e+00
-6.373484e+00
-6.359659e+00
-6.347563e+00
-6.337295e+00
-6.328954e+00
-6.322624e+00
-6.318383e+00
-6.316242e+00
-6.316250e+00
-6.318380e+00
-6.322626e+00
-6.328956e+00
-6.337292e+00
-6.347554e+00
-6.359666e+00
-6.373486e+00
-6.388888e+00
-6.405738e+00
-6.423836e+00
-6.443074e+00
-6.463180e+00
-6.484025e+00
-6.505388e+00
-6.527070e+00
-6.548851e+00
-6.570527e+00
-6.591890e+00
-6.612735e+00
-6.632873e+00
-6.652078e+00
-6.670197e+00
-6.687033e+00
-6.702435e+00
-6.716256e+00
-6.728353e+00
-6.738627e+00
-6.746960e+00
-6.753276e+00
-6.757538e+00
-6.759673e+00
-6.759670e+00
-6.757522e+00
-6.753284e+00
-6.746957e+00
-6.738627e+00
-6.728357e+00
-6.716249e+00
-6.702415e+00
-6.687033e+00
-6.670191e+00
-6.652081e+00
-6.632870e+00
-6.612742e+00
-6.591890e+00
-6.570531e+00
-6.548847e+00