<?xml version="1.0"?>
<VTKFile byte_order="LittleEndian" version="1.0" type="ImageData">
<ImageData Origin="0.0000000000000000e+00 0.0000000000000000e+00 0.0000000000000000e+00" WholeExtent="0 63 0 63 0 63" Spacing="5.0793653726577759e-01 5.0793653726577759e-01 5.0793653726577759e-01">
<Piece Extent="0 63 0 63 0 63">
<PointData Scalars="wall">
<DataArray type="Float64" Name="wall" NumberOfComponents="1" format="ascii"/>5.463024e+00
5.462159e+00
5.461299e+00
5.460468e+00
5.459657e+00
5.458884e+00
5.458157e+00
5.457486e+00
5.456868e+00
5.456316e+00
5.455830e+00
5.455423e+00
5.455094e+00
5.454840e+00
5.454664e+00
5.454586e+00
5.454573e+00
5.454662e+00
5.454830e+00
5.455086e+00
5.455420e+00
5.455828e+00
5.456315e+00
5.456875e+00
5.457489e+00
5.458159e+00
5.458894e+00
5.459654e+00
5.460460e+00
5.461297e+00
5.462149e+00
5.463015e+00
5.463890e+00
5.464756e+00
5.465614e+00
5.466432e+00
5.467246e+00
5.468030e+00
5.468757e+00
5.469422e+00
5.470037e+00
5.470593e+00
5.471074e+00
5.471484e+00
5.471819e+00
5.472072e+00
5.472245e+00
5.472328e+00
5.472331e+00
5.472254e+00
5.472071e+00
5.471828e+00
5.471489e+00
5.471077e+00
5.470589e+00
5.470037e+00
5.469419e+00
5.468745e+00
5.468022e+00
5.467254e+00
5.466449e+00
5.465620e+00
5.464761e+00
5.463897e+00
5.453179e+00
5.452168e+00
5.451178e+00
5.450187e+00
5.449249e+00
5.448358e+00
5.447508e+00
5.446721e+00
5.445999e+00
5.445355e+00
5.444795e+00
5.444303e+00
5.443914e+00
5.443630e+00
5.443425e+00
5.443324e+00
5.443320e+00
5.443429e+00
5.443624e+00
5.443918e+00
5.444309e+00
5.444791e+00
5.445357e+00
5.445996e+00
5.446719e+00
5.447505e+00
5.448363e+00
5.449252e+00
5.450196e+00
5.451168e+00
5.452162e+00
5.453176e+00
5.454196e+00
5.455210e+00
5.456212e+00
5.457186e+00
5.458122e+00
5.459016e+00
5.459869e+00
5.460655e+00
5.461373e+00
5.462020e+00
5.462585e+00
5.463063e+00
5.463454e+00
5.463751e+00
5.463949e+00
5.464047e+00
5.464050e+00
5.463951e+00
5.463764e+00
5.463452e+00
5.463065e+00
5.462587e+00
5.462020e+00
5.461373e+00
5.460651e+00
5.459867e+00
5.459022e+00
5.458123e+00
5.457181e+00
5.456215e+00
5.455206e+00
5.454195e+00
5.442085e+00
5.440911e+00
5.439751e+00
5.438621e+00
5.437519e+00
5.436477e+00
5.435499e+00
5.434587e+00
5.433748e+00
5.432999e+00
5.432342e+00
5.431781e+00
5.431335e+00
5.430988e+00
5.430755e+00
5.430638e+00
5.430640e+00
5.430758e+00
5.430988e+00
5.431331e+00
5.431785e+00
5.432342e+00
5.433000e+00
5.433746e+00
5.434581e+00
5.435502e+00
5.436480e+00
5.437530e+00
5.438618e+00
5.439754e+00
5.440912e+00
5.442085e+00
5.443272e+00
5.444447e+00
5.445611e+00
5.446734e+00
5.447841e+00
5.448875e+00
5.449857e+00
5.450769e+00
5.451608e+00
5.452363e+00
5.453015e+00
5.453572e+00
5.454026e+00
5.454369e+00
5.454604e+00
5.454714e+00
5.454712e+00
5.454600e+00
5.454376e+00
5.454031e+00
5.453567e+00
5.453013e+00
5.452358e+00
5.451609e+00
5.450770e+00
5.449858e+00
5.448875e+00
5.447829e+00
5.446741e+00
5.445608e+00
5.444448e+00
5.443272e+00
5.429666e+00
5.428302e+00
5.426959e+00
5.425651e+00
5.424389e+00
5.423190e+00
5.422050e+00
5.420988e+00
5.420021e+00
5.419157e+00
5.418403e+00
5.417751e+00
5.417225e+00
5.416835e+00
5.416567e+00
5.416436e+00
5.416434e+00
5.416571e+00
5.416831e+00
5.417227e+00
5.417750e+00
5.418397e+00
5.419163e+00
5.420027e+00
5.420989e+00
5.422045e+00
5.423181e+00
5.424383e+00
5.425652e+00
5.426960e+00
5.428301e+00
5.429659e+00
5.431027e+00
5.432387e+00
5.433722e+00
5.435042e+00
5.436308e+00
5.437505e+00
5.438645e+00
5.439705e+00
5.440669e+00
5.441541e+00
5.442294e+00
5.442937e+00
5.443460e+00
5.443858e+00
5.444131e+00
5.444263e+00
5.444265e+00
5.444124e+00
5.443881e+00
5.443456e+00
5.442938e+00
5.442302e+00
5.441536e+00
5.440666e+00
5.439699e+00
5.438645e+00
5.437514e+00
5.436300e+00
5.435036e+00
5.433732e+00
5.432387e+00
5.431030e+00
5.415828e+00
5.414262e+00
5.412725e+00
5.411218e+00
5.409774e+00
5.408375e+00
5.407069e+00
5.405854e+00
5.404742e+00
5.403745e+00
5.402872e+00
5.402135e+00
5.401527e+00
5.401082e+00
5.400761e+00
5.400609e+00
5.400609e+00
5.400768e+00
5.401071e+00
5.401527e+00
5.402129e+00
5.402869e+00
5.403747e+00
5.404741e+00
5.405855e+00
5.407074e+00
5.408385e+00
5.409760e+00
5.411222e+00
5.412725e+00
5.414268e+00
5.415829e+00
5.417398e+00
5.418973e+00
5.420509e+00
5.422028e+00
5.423467e+00
5.424853e+00
5.426161e+00
5.427375e+00
5.428487e+00
5.429490e+00
5.430359e+00
5.431100e+00
5.431702e+00
5.432158e+00
5.432469e+00
5.432619e+00
5.432618e+00
5.432467e+00
5.432188e+00
5.431701e+00
5.431109e+00
5.430358e+00
5.429486e+00
5.428488e+00
5.427376e+00
5.426161e+00
5.424856e+00
5.423470e+00
5.422013e+00
5.420507e+00
5.418966e+00
5.417402e+00
5.400529e+00
5.398735e+00
5.396971e+00
5.395248e+00
5.393591e+00
5.392002e+00
5.390508e+00
5.389112e+00
5.387840e+00
5.386700e+00
5.385700e+00
5.384841e+00
5.384163e+00
5.383636e+00
5.383285e+00
5.383112e+00
5.383112e+00
5.383282e+00
5.383640e+00
5.384159e+00
5.384848e+00
5.385700e+00
5.386691e+00
5.387843e+00
5.389110e+00
5.390501e+00
5.392004e+00
5.393584e+00
5.395238e+00
5.396976e+00
5.398732e+00
5.400527e+00
5.402326e+00
5.404109e+00
5.405890e+00
5.407611e+00
5.409268e+00
5.410856e+00
5.412352e+00
5.413745e+00
5.415017e+00
5.416156e+00
5.417161e+00
5.418006e+00
5.418695e+00
5.419221e+00
5.419565e+00
5.419748e+00
5.419748e+00
5.419568e+00
5.419257e+00
5.418674e+00
5.418011e+00
5.417161e+00
5.416164e+00
5.415017e+00
5.413746e+00
5.412355e+00
5.410859e+00
5.409262e+00
5.407609e+00
5.405879e+00
5.404118e+00
5.402327e+00
5.383700e+00
5.381660e+00
5.379655e+00
5.377692e+00
5.375798e+00
5.374002e+00
5.372283e+00
5.370702e+00
5.369253e+00
5.367950e+00
5.366821e+00
5.365844e+00
5.365059e+00
5.364462e+00
5.364062e+00
5.363863e+00
5.363863e+00
5.364069e+00
5.364469e+00
5.365060e+00
5.365845e+00
5.366814e+00
5.367953e+00
5.369248e+00
5.370702e+00
5.372289e+00
5.373987e+00
5.375795e+00
5.377684e+00
5.379662e+00
5.381663e+00
5.383707e+00
5.385761e+00
5.387789e+00
5.389819e+00
5.391764e+00
5.393658e+00
5.395468e+00
5.397167e+00
5.398751e+00
5.400199e+00
5.401505e+00
5.402644e+00
5.403607e+00
5.404391e+00
5.404989e+00
5.405390e+00
5.405588e+00
5.405589e+00
5.405388e+00
5.405038e+00
5.404370e+00
5.403608e+00
5.402654e+00
5.401501e+00
5.400204e+00
5.398755e+00
5.397169e+00
5.395473e+00
5.393654e+00
5.391762e+00
5.389800e+00
5.387795e+00
5.385753e+00
5.365327e+00
5.363017e+00
5.360736e+00
5.358517e+00
5.356373e+00
5.354314e+00
5.352395e+00
5.350605e+00
5.348961e+00
5.347483e+00
5.346186e+00
5.345101e+00
5.344205e+00
5.343532e+00
5.343074e+00
5.342850e+00
5.342854e+00
5.343072e+00
5.343528e+00
5.344202e+00
5.345089e+00
5.346184e+00
5.347472e+00
5.348956e+00
5.350596e+00
5.352388e+00
5.354322e+00
5.356369e+00
5.358522e+00
5.360733e+00
5.363022e+00
5.365324e+00
5.367643e+00
5.369961e+00
5.372244e+00
5.374465e+00
5.376610e+00
5.378657e+00
5.380589e+00
5.382383e+00
5.384029e+00
5.385496e+00
5.386788e+00
5.387882e+00
5.388769e+00
5.389444e+00
5.389895e+00
5.390131e+00
5.390129e+00
5.389901e+00
5.389448e+00
5.388753e+00
5.387887e+00
5.386783e+00
5.385504e+00
5.384036e+00
5.382391e+00
5.380592e+00
5.378655e+00
5.376615e+00
5.374462e+00
5.372241e+00
5.369960e+00
5.367652e+00
5.345386e+00
5.342784e+00
5.340216e+00
5.337709e+00
5.335291e+00
5.332983e+00
5.330815e+00
5.328775e+00
5.326925e+00
5.325273e+00
5.323812e+00
5.322575e+00
5.321570e+00
5.320814e+00
5.320303e+00
5.320043e+00
5.320048e+00
5.320302e+00
5.320813e+00
5.321573e+00
5.322576e+00
5.323810e+00
5.325267e+00
5.326928e+00
5.328779e+00
5.330805e+00
5.332980e+00
5.335282e+00
5.337709e+00
5.340216e+00
5.342745e+00
5.345397e+00
5.348011e+00
5.350631e+00
5.353183e+00
5.355691e+00
5.358104e+00
5.360419e+00
5.362596e+00
5.364617e+00
5.366474e+00
5.368134e+00
5.369588e+00
5.370822e+00
5.371825e+00
5.372585e+00
5.373098e+00
5.373355e+00
5.373350e+00
5.373097e+00
5.372586e+00
5.371806e+00
5.370825e+00
5.369590e+00
5.368145e+00
5.366469e+00
5.364619e+00
5.362603e+00
5.360419e+00
5.358111e+00
5.355686e+00
5.353184e+00
5.350616e+00
5.348007e+00
5.323905e+00
5.320975e+00
5.318095e+00
5.315285e+00
5.312572e+00
5.309980e+00
5.307546e+00
5.305272e+00
5.303196e+00
5.301323e+00
5.299696e+00
5.298307e+00
5.297184e+00
5.296327e+00
5.295754e+00
5.295470e+00
5.295469e+00
5.295761e+00
5.296335e+00
5.297183e+00
5.298304e+00
5.299699e+00
5.301325e+00
5.303189e+00
5.305266e+00
5.307535e+00
5.309977e+00
5.312573e+00
5.315286e+00
5.318101e+00
5.320928e+00
5.323896e+00
5.326843e+00
5.329772e+00
5.332646e+00
5.335458e+00
5.338168e+00
5.340762e+00
5.343203e+00
5.345479e+00
5.347555e+00
5.349419e+00
5.351054e+00
5.352436e+00
5.353558e+00
5.354418e+00
5.354987e+00
5.355275e+00
5.355275e+00
5.354984e+00
5.354411e+00
5.353541e+00
5.352437e+00
5.351051e+00
5.349414e+00
5.347560e+00
5.345485e+00
5.343205e+00
5.340766e+00
5.338172e+00
5.335460e+00
5.332643e+00
5.329763e+00
5.326840e+00
5.300902e+00
5.297641e+00
5.294421e+00
5.291282e+00
5.288252e+00
5.285359e+00
5.282629e+00
5.280105e+00
5.277780e+00
5.275696e+00
5.273885e+00
5.272329e+00
5.271074e+00
5.270124e+00
5.269484e+00
5.269161e+00
5.269161e+00
5.269477e+00
5.270118e+00
5.271073e+00
5.272328e+00
5.273871e+00
5.275692e+00
5.277778e+00
5.280097e+00
5.282633e+00
5.285363e+00
5.288252e+00
5.291282e+00
5.294423e+00
5.297591e+00
5.300906e+00
5.304194e+00
5.307445e+00
5.310661e+00
5.313798e+00
5.316831e+00
5.319716e+00
5.322453e+00
5.324986e+00
5.327304e+00
5.329382e+00
5.331204e+00
5.332753e+00
5.334008e+00
5.334957e+00
5.335596e+00
5.335922e+00
5.335922e+00
5.335602e+00
5.334962e+00
5.333992e+00
5.332754e+00
5.331203e+00
5.329382e+00
5.327311e+00
5.324986e+00
5.322449e+00
5.319730e+00
5.316830e+00
5.313801e+00
5.310666e+00
5.307446e+00
5.304181e+00
5.276454e+00
5.272834e+00
5.269263e+00
5.265769e+00
5.262408e+00
5.259193e+00
5.256166e+00
5.253350e+00
5.250773e+00
5.248470e+00
5.246439e+00
5.244720e+00
5.243323e+00
5.242272e+00
5.241562e+00
5.241198e+00
5.241201e+00
5.241556e+00
5.242274e+00
5.243335e+00
5.244729e+00
5.246438e+00
5.248459e+00
5.250773e+00
5.253345e+00
5.256169e+00
5.259197e+00
5.262403e+00
5.265772e+00
5.269261e+00
5.272789e+00
5.276455e+00
5.280107e+00
5.283719e+00
5.287296e+00
5.290785e+00
5.294147e+00
5.297367e+00
5.300394e+00
5.303205e+00
5.305784e+00
5.308093e+00
5.310123e+00
5.311843e+00
5.313237e+00
5.314291e+00
5.314996e+00
5.315356e+00
5.315353e+00
5.315001e+00
5.314291e+00
5.313214e+00
5.311837e+00
5.310119e+00
5.308095e+00
5.305789e+00
5.303208e+00
5.300398e+00
5.297359e+00
5.294149e+00
5.290781e+00
5.287301e+00
5.283730e+00
5.280097e+00
5.250662e+00
5.246655e+00
5.242708e+00
5.238857e+00
5.235138e+00
5.231583e+00
5.228229e+00
5.225126e+00
5.222275e+00
5.219714e+00
5.217487e+00
5.215591e+00
5.214047e+00
5.212878e+00
5.212093e+00
5.211699e+00
5.211701e+00
5.212097e+00
5.212873e+00
5.214043e+00
5.215584e+00
5.217481e+00
5.219726e+00
5.222281e+00
5.225126e+00
5.228237e+00
5.231583e+00
5.235134e+00
5.238857e+00
5.242709e+00
5.246624e+00
5.250663e+00
5.254692e+00
5.258691e+00
5.262647e+00
5.266503e+00
5.270220e+00
5.273769e+00
5.277108e+00
5.280228e+00
5.283077e+00
5.285636e+00
5.287860e+00
5.289762e+00
5.291302e+00
5.292470e+00
5.293262e+00
5.293656e+00
5.293654e+00
5.293259e+00
5.292474e+00
5.291296e+00
5.289767e+00
5.287865e+00
5.285594e+00
5.283077e+00
5.280228e+00
5.277106e+00
5.273768e+00
5.270220e+00
5.266497e+00
5.262644e+00
5.258697e+00
5.254692e+00
5.223654e+00
5.219248e+00
5.214902e+00
5.210669e+00
5.206577e+00
5.202673e+00
5.198990e+00
5.195563e+00
5.192434e+00
5.189626e+00
5.187164e+00
5.185080e+00
5.183389e+00
5.182102e+00
5.181238e+00
5.180806e+00
5.180805e+00
5.181238e+00
5.182105e+00
5.183390e+00
5.185085e+00
5.187171e+00
5.189629e+00
5.192439e+00
5.195569e+00
5.198989e+00
5.202673e+00
5.206578e+00
5.210672e+00
5.214909e+00
5.219208e+00
5.223650e+00
5.228090e+00
5.232488e+00
5.236833e+00
5.241068e+00
5.245155e+00
5.249060e+00
5.252744e+00
5.256166e+00
5.259296e+00
5.262101e+00
5.264566e+00
5.266649e+00
5.268349e+00
5.269633e+00
5.270495e+00
5.270930e+00
5.270930e+00
5.270495e+00
5.269630e+00
5.268335e+00
5.266652e+00
5.264565e+00
5.262072e+00
5.259293e+00
5.256163e+00
5.252740e+00
5.249059e+00
5.245157e+00
5.241067e+00
5.236830e+00
5.232485e+00
5.228081e+00
5.195583e+00
5.190763e+00
5.186013e+00
5.181372e+00
5.176900e+00
5.172628e+00
5.168600e+00
5.164857e+00
5.161429e+00
5.158357e+00
5.155668e+00
5.153381e+00
5.151523e+00
5.150120e+00
5.149175e+00
5.148696e+00
5.148698e+00
5.149177e+00
5.150126e+00
5.151531e+00
5.153384e+00
5.155668e+00
5.158356e+00
5.161427e+00
5.164851e+00
5.168600e+00
5.172627e+00
5.176898e+00
5.181371e+00
5.186001e+00
5.190729e+00
5.195588e+00
5.200425e+00
5.205253e+00
5.209996e+00
5.214636e+00
5.219110e+00
5.223388e+00
5.227415e+00
5.231158e+00
5.234584e+00
5.237661e+00
5.240355e+00
5.242635e+00
5.244491e+00
5.245898e+00
5.246840e+00
5.247313e+00
5.247312e+00
5.246840e+00
5.245895e+00
5.244476e+00
5.242634e+00
5.240352e+00
5.237629e+00
5.234581e+00
5.231163e+00
5.227416e+00
5.223391e+00
5.219113e+00
5.214636e+00
5.210002e+00
5.205252e+00
5.200426e+00
5.166653e+00
5.161398e+00
5.156226e+00
5.151184e+00
5.146303e+00
5.141650e+00
5.137277e+00
5.133188e+00
5.129460e+00
5.126126e+00
5.123179e+00
5.120695e+00
5.118685e+00
5.117147e+00
5.116118e+00
5.115608e+00
5.115606e+00
5.116118e+00
5.117150e+00
5.118679e+00
5.120695e+00
5.123187e+00
5.126113e+00
5.129463e+00
5.133196e+00
5.137268e+00
5.141653e+00
5.146304e+00
5.151185e+00
5.156223e+00
5.161370e+00
5.166646e+00
5.171922e+00
5.177181e+00
5.182343e+00
5.187394e+00
5.192269e+00
5.196915e+00
5.201303e+00
5.205378e+00
5.209115e+00
5.212456e+00
5.215388e+00
5.217873e+00
5.219890e+00
5.221425e+00
5.222451e+00
5.222972e+00
5.222973e+00
5.222452e+00
5.221423e+00
5.219889e+00
5.217871e+00
5.215384e+00
5.212434e+00
5.209080e+00
5.205378e+00
5.201313e+00
5.196913e+00
5.192264e+00
5.187397e+00
5.182344e+00
5.177172e+00
5.171928e+00
5.137078e+00
5.131397e+00
5.125793e+00
5.120317e+00
5.115044e+00
5.110003e+00
5.105246e+00
5.100839e+00
5.096799e+00
5.093172e+00
5.089994e+00
5.087304e+00
5.085111e+00
5.083460e+00
5.082345e+00
5.081779e+00
5.081782e+00
5.082345e+00
5.083458e+00
5.085119e+00
5.087306e+00
5.089997e+00
5.093173e+00
5.096795e+00
5.100832e+00
5.105256e+00
5.110006e+00
5.115043e+00
5.120331e+00
5.125791e+00
5.131363e+00
5.137084e+00
5.142795e+00
5.148489e+00
5.154087e+00
5.159557e+00
5.164830e+00
5.169871e+00
5.174624e+00
5.179033e+00
5.183079e+00
5.186706e+00
5.189880e+00
5.192575e+00
5.194761e+00
5.196419e+00
5.197534e+00
5.198092e+00
5.198091e+00
5.197535e+00
5.196420e+00
5.194752e+00
5.192573e+00
5.189878e+00
5.186699e+00
5.183049e+00
5.179042e+00
5.174623e+00
5.169869e+00
5.164833e+00
5.159549e+00
5.154088e+00
5.148484e+00
5.142791e+00
5.107123e+00
5.100994e+00
5.094952e+00
5.089062e+00
5.083369e+00
5.077937e+00
5.072814e+00
5.068055e+00
5.063699e+00
5.059801e+00
5.056372e+00
5.053471e+00
5.051114e+00
5.049322e+00
5.048120e+00
5.047518e+00
5.047518e+00
5.048126e+00
5.049330e+00
5.051109e+00
5.053467e+00
5.056378e+00
5.059796e+00
5.063699e+00
5.068056e+00
5.072815e+00
5.077937e+00
5.083368e+00
5.089048e+00
5.094958e+00
5.100967e+00
5.107122e+00
5.113285e+00
5.119408e+00
5.125454e+00
5.131340e+00
5.137038e+00
5.142468e+00
5.147590e+00
5.152347e+00
5.156708e+00
5.160618e+00
5.164042e+00
5.166938e+00
5.169295e+00
5.171089e+00
5.172288e+00
5.172889e+00
5.172889e+00
5.172285e+00
5.171081e+00
5.169294e+00
5.166939e+00
5.164035e+00
5.160612e+00
5.156680e+00
5.152350e+00
5.147597e+00
5.142470e+00
5.137041e+00
5.131350e+00
5.125453e+00
5.119411e+00
5.113284e+00
5.077065e+00
5.070490e+00
5.064013e+00
5.057683e+00
5.051581e+00
5.045767e+00
5.040267e+00
5.035162e+00
5.030493e+00
5.026295e+00
5.022637e+00
5.019508e+00
5.016981e+00
5.015072e+00
5.013783e+00
5.013134e+00
5.013131e+00
5.013780e+00
5.015066e+00
5.016990e+00
5.019517e+00
5.022627e+00
5.026299e+00
5.030488e+00
5.035160e+00
5.040270e+00
5.045761e+00
5.051586e+00
5.057683e+00
5.064021e+00
5.070464e+00
5.077066e+00
5.083673e+00
5.090239e+00
5.096729e+00
5.103041e+00
5.109144e+00
5.114976e+00
5.120465e+00
5.125571e+00
5.130239e+00
5.134431e+00
5.138099e+00
5.141218e+00
5.143745e+00
5.145660e+00
5.146950e+00
5.147596e+00
5.147598e+00
5.146952e+00
5.145664e+00
5.143741e+00
5.141213e+00
5.138108e+00
5.134432e+00
5.130219e+00
5.125573e+00
5.120460e+00
5.114978e+00
5.109139e+00
5.103037e+00
5.096723e+00
5.090246e+00
5.083667e+00
5.047199e+00
5.040186e+00
5.033271e+00
5.026525e+00
5.020014e+00
5.013800e+00
5.007933e+00
5.002485e+00
4.997499e+00
4.993028e+00
4.989120e+00
4.985786e+00
4.983089e+00
4.981043e+00
4.979669e+00
4.978976e+00
4.978981e+00
4.979667e+00
4.981041e+00
4.983090e+00
4.985788e+00
4.989109e+00
4.993026e+00
4.997504e+00
5.002483e+00
5.007934e+00
5.013795e+00
5.020020e+00
5.026526e+00
5.033285e+00
5.040162e+00
5.047201e+00
5.054250e+00
5.061262e+00
5.068185e+00
5.074930e+00
5.081443e+00
5.087656e+00
5.093516e+00
5.098966e+00
5.103947e+00
5.108423e+00
5.112339e+00
5.115664e+00
5.118362e+00
5.120407e+00
5.121782e+00
5.122477e+00
5.122474e+00
5.121784e+00
5.120408e+00
5.118363e+00
5.115665e+00
5.112345e+00
5.108424e+00
5.103932e+00
5.098968e+00
5.093516e+00
5.087665e+00
5.081437e+00
5.074926e+00
5.068180e+00
5.061266e+00
5.054250e+00
5.017863e+00
5.010413e+00
5.003071e+00
4.995911e+00
4.988987e+00
4.982383e+00
4.976169e+00
4.970378e+00
4.965088e+00
4.960341e+00
4.956181e+00
4.952645e+00
4.949789e+00
4.947612e+00
4.946154e+00
4.945421e+00
4.945418e+00
4.946154e+00
4.947617e+00
4.949788e+00
4.952648e+00
4.956180e+00
4.960339e+00
4.965085e+00
4.970382e+00
4.976161e+00
4.982393e+00
4.989002e+00
4.995906e+00
5.003088e+00
5.010390e+00
5.017864e+00
5.025351e+00
5.032795e+00
5.040147e+00
5.047299e+00
5.054224e+00
5.060822e+00
5.067041e+00
5.072830e+00
5.078119e+00
5.082873e+00
5.087030e+00
5.090560e+00
5.093422e+00
5.095597e+00
5.097058e+00
5.097790e+00
5.097792e+00
5.097057e+00
5.095596e+00
5.093427e+00
5.090556e+00
5.087025e+00
5.082873e+00
5.078094e+00
5.072831e+00
5.067046e+00
5.060821e+00
5.054214e+00
5.047304e+00
5.040137e+00
5.032798e+00
5.025350e+00
4.989376e+00
4.981500e+00
4.973745e+00
4.966178e+00
4.958872e+00
4.951903e+00
4.945319e+00
4.939207e+00
4.933613e+00
4.928593e+00
4.924211e+00
4.920475e+00
4.917450e+00
4.915152e+00
4.913606e+00
4.912834e+00
4.912839e+00
4.913613e+00
4.915148e+00
4.917448e+00
4.920475e+00
4.924202e+00
4.928604e+00
4.933618e+00
4.939206e+00
4.945317e+00
4.951892e+00
4.958859e+00
4.966182e+00
4.973753e+00
4.981481e+00
4.989373e+00
4.997289e+00
5.005149e+00
5.012907e+00
5.020481e+00
5.027780e+00
5.034759e+00
5.041334e+00
5.047455e+00
5.053043e+00
5.058066e+00
5.062455e+00
5.066182e+00
5.069210e+00
5.071505e+00
5.073053e+00
5.073826e+00
5.073823e+00
5.073046e+00
5.071505e+00
5.069211e+00
5.066183e+00
5.062453e+00
5.058061e+00
5.053017e+00
5.047450e+00
5.041334e+00
5.034767e+00
5.027786e+00
5.020482e+00
5.012911e+00
5.005151e+00
4.997282e+00
4.962087e+00
4.953805e+00
4.945655e+00
4.937700e+00
4.930019e+00
4.922684e+00
4.915772e+00
4.909341e+00
4.903462e+00
4.898188e+00
4.893569e+00
4.889654e+00
4.886474e+00
4.884058e+00
4.882432e+00
4.881621e+00
4.881612e+00
4.882432e+00
4.884053e+00
4.886467e+00
4.889648e+00
4.893568e+00
4.898190e+00
4.903460e+00
4.909345e+00
4.915770e+00
4.922681e+00
4.930006e+00
4.937704e+00
4.945654e+00
4.953788e+00
4.962082e+00
4.970391e+00
4.978669e+00
4.986816e+00
4.994787e+00
5.002460e+00
5.009797e+00
5.016709e+00
5.023144e+00
5.029011e+00
5.034295e+00
5.038909e+00
5.042829e+00
5.046011e+00
5.048427e+00
5.050049e+00
5.050859e+00
5.050864e+00
5.050045e+00
5.048427e+00
5.046016e+00
5.042832e+00
5.038904e+00
5.034294e+00
5.028991e+00
5.023137e+00
5.016709e+00
5.009801e+00
5.002467e+00
4.994788e+00
4.986829e+00
4.978672e+00
4.970399e+00
4.936320e+00
4.927670e+00
4.919134e+00
4.910813e+00
4.902780e+00
4.895105e+00
4.887886e+00
4.881160e+00
4.875005e+00
4.869492e+00
4.864652e+00
4.860559e+00
4.857222e+00
4.854697e+00
4.853007e+00
4.852152e+00
4.852146e+00
4.853003e+00
4.854708e+00
4.857228e+00
4.860557e+00
4.864660e+00
4.869485e+00
4.874998e+00
4.881155e+00
4.887879e+00
4.895111e+00
4.902775e+00
4.910822e+00
4.919134e+00
4.927651e+00
4.936323e+00
4.945024e+00
4.953683e+00
4.962200e+00
4.970530e+00
4.978564e+00
4.986234e+00
4.993469e+00
5.000186e+00
5.006334e+00
5.011851e+00
5.016691e+00
5.020788e+00
5.024119e+00
5.026647e+00
5.028334e+00
5.029186e+00
5.029189e+00
5.028339e+00
5.026638e+00
5.024114e+00
5.020788e+00
5.016686e+00
5.011863e+00
5.006316e+00
5.000189e+00
4.993469e+00
4.986231e+00
4.978568e+00
4.970522e+00
4.962201e+00
4.953676e+00
4.945021e+00
4.912430e+00
4.903421e+00
4.894547e+00
4.885878e+00
4.877524e+00
4.869539e+00
4.862006e+00
4.855012e+00
4.848612e+00
4.842865e+00
4.837841e+00
4.833580e+00
4.830101e+00
4.827480e+00
4.825713e+00
4.824824e+00
4.824825e+00
4.825716e+00
4.827476e+00
4.830109e+00
4.833572e+00
4.837835e+00
4.842871e+00
4.848609e+00
4.855009e+00
4.862006e+00
4.869543e+00
4.877515e+00
4.885895e+00
4.894547e+00
4.903407e+00
4.912434e+00
4.921487e+00
4.930498e+00
4.939373e+00
4.948040e+00
4.956395e+00
4.964385e+00
4.971904e+00
4.978900e+00
4.985304e+00
4.991042e+00
4.996076e+00
5.000346e+00
5.003799e+00
5.006432e+00
5.008203e+00
5.009089e+00
5.009089e+00
5.008202e+00
5.006437e+00
5.003806e+00
5.000349e+00
4.996079e+00
4.991053e+00
4.985284e+00
4.978906e+00
4.971905e+00
4.964382e+00
4.956405e+00
4.948029e+00
4.939371e+00
4.930494e+00
4.921483e+00
4.890731e+00
4.881399e+00
4.872206e+00
4.863233e+00
4.854582e+00
4.846312e+00
4.838511e+00
4.831265e+00
4.824637e+00
4.818688e+00
4.813485e+00
4.809072e+00
4.805469e+00
4.802752e+00
4.800921e+00
4.800004e+00
4.800009e+00
4.800928e+00
4.802751e+00
4.805474e+00
4.809062e+00
4.813479e+00
4.818694e+00
4.824637e+00
4.831265e+00
4.838511e+00
4.846313e+00
4.854573e+00
4.863251e+00
4.872210e+00
4.881401e+00
4.890732e+00
4.900110e+00
4.909432e+00
4.918634e+00
4.927608e+00
4.936262e+00
4.944533e+00
4.952323e+00
4.959569e+00
4.966201e+00
4.972143e+00
4.977356e+00
4.981776e+00
4.985355e+00
4.988081e+00
4.989915e+00
4.990833e+00
4.990832e+00
4.989913e+00
4.988084e+00
4.985361e+00
4.981781e+00
4.977360e+00
4.972145e+00
4.966178e+00
4.959573e+00
4.952324e+00
4.944533e+00
4.936272e+00
4.927597e+00
4.918630e+00
4.909434e+00
4.900105e+00
4.871518e+00
4.861902e+00
4.852427e+00
4.843182e+00
4.834268e+00
4.825736e+00
4.817707e+00
4.810240e+00
4.803409e+00
4.797280e+00
4.791912e+00
4.787357e+00
4.783659e+00
4.780857e+00
4.778973e+00
4.778028e+00
4.778025e+00
4.778972e+00
4.780858e+00
4.783663e+00
4.787360e+00
4.791913e+00
4.797277e+00
4.803411e+00
4.810240e+00
4.817707e+00
4.825746e+00
4.834258e+00
4.843201e+00
4.852427e+00
4.861903e+00
4.871519e+00
4.881174e+00
4.890788e+00
4.900262e+00
4.909518e+00
4.918435e+00
4.926957e+00
4.934986e+00
4.942452e+00
4.949286e+00
4.955409e+00
4.960781e+00
4.965334e+00
4.969023e+00
4.971835e+00
4.973717e+00
4.974668e+00
4.974668e+00
4.973720e+00
4.971835e+00
4.969029e+00
4.965341e+00
4.960778e+00
4.955411e+00
4.949262e+00
4.942457e+00
4.934987e+00
4.926954e+00
4.918446e+00
4.909506e+00
4.900265e+00
4.890790e+00
4.881178e+00
4.855060e+00
4.845199e+00
4.835486e+00
4.826007e+00
4.816858e+00
4.808120e+00
4.799887e+00
4.792229e+00
4.785224e+00
4.778944e+00
4.773439e+00
4.768769e+00
4.764977e+00
4.762105e+00
4.760169e+00
4.759203e+00
4.759201e+00
4.760171e+00
4.762106e+00
4.764978e+00
4.768770e+00
4.773440e+00
4.778941e+00
4.785229e+00
4.792232e+00
4.799887e+00
4.808130e+00
4.816857e+00
4.826006e+00
4.835487e+00
4.845202e+00
4.855059e+00
4.864961e+00
4.874818e+00
4.884532e+00
4.894023e+00
4.903165e+00
4.911902e+00
4.920135e+00
4.927790e+00
4.934797e+00
4.941075e+00
4.946583e+00
4.951250e+00
4.955034e+00
4.957917e+00
4.959846e+00
4.960822e+00
4.960821e+00
4.959847e+00
4.957917e+00
4.955040e+00
4.951247e+00
4.946580e+00
4.941077e+00
4.934772e+00
4.927790e+00
4.920136e+00
4.911900e+00
4.903166e+00
4.894011e+00
4.884535e+00
4.874817e+00
4.864965e+00
4.841591e+00
4.831534e+00
4.821625e+00
4.811949e+00
4.802615e+00
4.793701e+00
4.785303e+00
4.777494e+00
4.770348e+00
4.763934e+00
4.758317e+00
4.753553e+00
4.749687e+00
4.746761e+00
4.744786e+00
4.743796e+00
4.743791e+00
4.744781e+00
4.746757e+00
4.749693e+00
4.753561e+00
4.758321e+00
4.763931e+00
4.770344e+00
4.777491e+00
4.785299e+00
4.793694e+00
4.802617e+00
4.811969e+00
4.821618e+00
4.831532e+00
4.841594e+00
4.851695e+00
4.861752e+00
4.871661e+00
4.881337e+00
4.890666e+00
4.899576e+00
4.907980e+00
4.915794e+00
4.922939e+00
4.929342e+00
4.934962e+00
4.939728e+00
4.943588e+00
4.946527e+00
4.948498e+00
4.949488e+00
4.949489e+00
4.948499e+00
4.946529e+00
4.943591e+00
4.939719e+00
4.934964e+00
4.929349e+00
4.922916e+00
4.915794e+00
4.907980e+00
4.899576e+00
4.890669e+00
4.881330e+00
4.871665e+00
4.861751e+00
4.851694e+00
4.831314e+00
4.821105e+00
4.811046e+00
4.801224e+00
4.791748e+00
4.782700e+00
4.774175e+00
4.766241e+00
4.758989e+00
4.752483e+00
4.746781e+00
4.741946e+00
4.738021e+00
4.735051e+00
4.733046e+00
4.732041e+00
4.732036e+00
4.733041e+00
4.735046e+00
4.738021e+00
4.741946e+00
4.746786e+00
4.752480e+00
4.758990e+00
4.766245e+00
4.774170e+00
4.782692e+00
4.791750e+00
4.801224e+00
4.811038e+00
4.821102e+00
4.831307e+00
4.841563e+00
4.851779e+00
4.861838e+00
4.871644e+00
4.881130e+00
4.890175e+00
4.898706e+00
4.906638e+00
4.913891e+00
4.920391e+00
4.926096e+00
4.930930e+00
4.934847e+00
4.937835e+00
4.939837e+00
4.940842e+00
4.940843e+00
4.939837e+00
4.937838e+00
4.934855e+00
4.930925e+00
4.926097e+00
4.920399e+00
4.913868e+00
4.906635e+00
4.898706e+00
4.890175e+00
4.881133e+00
4.871653e+00
4.861842e+00
4.851779e+00
4.841569e+00
4.824377e+00
4.814065e+00
4.803899e+00
4.793983e+00
4.784413e+00
4.775274e+00
4.766663e+00
4.758649e+00
4.751324e+00
4.744753e+00
4.738993e+00
4.734110e+00
4.730146e+00
4.727141e+00
4.725121e+00
4.724105e+00
4.724100e+00
4.725116e+00
4.727141e+00
4.730145e+00
4.734110e+00
4.738998e+00
4.744750e+00
4.751326e+00
4.758653e+00
4.766659e+00
4.775263e+00
4.784415e+00
4.793983e+00
4.803897e+00
4.814062e+00
4.824369e+00
4.834729e+00
4.845047e+00
4.855207e+00
4.865111e+00
4.874693e+00
4.883824e+00
4.892446e+00
4.900458e+00
4.907784e+00
4.914348e+00
4.920111e+00
4.924994e+00
4.928950e+00
4.931968e+00
4.933990e+00
4.935005e+00
4.935006e+00
4.933990e+00
4.931967e+00
4.928958e+00
4.924988e+00
4.920112e+00
4.914356e+00
4.907760e+00
4.900455e+00
4.892446e+00
4.883829e+00
4.874696e+00
4.865120e+00
4.855209e+00
4.845047e+00
4.834734e+00
4.820881e+00
4.810518e+00
4.800302e+00
4.790336e+00
4.780718e+00
4.771533e+00
4.762879e+00
4.754825e+00
4.747463e+00
4.740859e+00
4.735070e+00
4.730163e+00
4.726179e+00
4.723158e+00
4.721128e+00
4.720108e+00
4.720102e+00
4.721123e+00
4.723158e+00
4.726178e+00
4.730163e+00
4.735075e+00
4.740856e+00
4.747465e+00
4.754829e+00
4.762874e+00
4.771522e+00
4.780720e+00
4.790336e+00
4.800300e+00
4.810515e+00
4.820875e+00
4.831285e+00
4.841656e+00
4.851867e+00
4.861821e+00
4.871451e+00
4.880627e+00
4.889292e+00
4.897344e+00
4.904706e+00
4.911304e+00
4.917096e+00
4.922003e+00
4.925980e+00
4.929013e+00
4.931044e+00
4.932064e+00
4.932065e+00
4.931045e+00
4.929011e+00
4.925987e+00
4.921998e+00
4.917097e+00
4.911312e+00
4.904683e+00
4.897341e+00
4.889292e+00
4.880632e+00
4.871453e+00
4.861830e+00
4.851869e+00
4.841655e+00
4.831291e+00
4.820881e+00
4.810518e+00
4.800302e+00
4.790336e+00
4.780718e+00
4.771533e+00
4.762879e+00
4.754825e+00
4.747463e+00
4.740859e+00
4.735070e+00
4.730163e+00
4.726179e+00
4.723158e+00
4.721128e+00
4.720108e+00
4.720102e+00
4.721123e+00
4.723158e+00
4.726178e+00
4.730163e+00
4.735075e+00
4.740856e+00
4.747465e+00
4.754829e+00
4.762874e+00
4.771522e+00
4.780720e+00
4.790336e+00
4.800300e+00
4.810515e+00
4.820875e+00
4.831285e+00
4.841656e+00
4.851867e+00
4.861821e+00
4.871451e+00
4.880627e+00
4.889292e+00
4.897344e+00
4.904706e+00
4.911304e+00
4.917096e+00
4.922003e+00
4.925980e+00
4.929013e+00
4.931044e+00
4.932064e+00
4.932065e+00
4.931045e+00
4.929011e+00
4.925987e+00
4.921998e+00
4.917097e+00
4.911312e+00
4.904683e+00
4.897341e+00
4.889292e+00
4.880632e+00
4.871453e+00
4.861830e+00
4.851869e+00
4.841655e+00
4.831291e+00
4.824377e+00
4.814065e+00
4.803899e+00
4.793983e+00
4.784413e+00
4.775274e+00
4.766663e+00
4.758649e+00
4.751324e+00
4.744753e+00
4.738993e+00
4.734110e+00
4.730146e+00
4.727141e+00
4.725121e+00
4.724105e+00
4.724100e+00
4.725116e+00
4.727141e+00
4.730145e+00
4.734110e+00
4.738998e+00
4.744750e+00
4.751326e+00
4.758653e+00
4.766659e+00
4.775263e+00
4.784415e+00
4.793983e+00
4.803897e+00
4.814062e+00
4.824369e+00
4.834729e+00
4.845047e+00
4.855207e+00
4.865111e+00
4.874693e+00
4.883824e+00
4.892446e+00
4.900458e+00
4.907784e+00
4.914348e+00
4.920111e+00
4.924994e+00
4.928950e+00
4.931968e+00
4.933990e+00
4.935005e+00
4.935006e+00
4.933990e+00
4.931967e+00
4.928958e+00
4.924988e+00
4.920112e+00
4.914356e+00
4.907760e+00
4.900455e+00
4.892446e+00
4.883829e+00
4.874696e+00
4.865120e+00
4.855209e+00
4.845047e+00
4.834734e+00
4.831314e+00
4.821105e+00
4.811046e+00
4.801224e+00
4.791748e+00
4.782700e+00
4.774175e+00
4.766241e+00
4.758989e+00
4.752483e+00
4.746781e+00
4.741946e+00
4.738021e+00
4.735051e+00
4.733046e+00
4.732041e+00
4.732036e+00
4.733041e+00
4.735046e+00
4.738021e+00
4.741946e+00
4.746786e+00
4.752480e+00
4.758990e+00
4.766245e+00
4.774170e+00
4.782692e+00
4.791750e+00
4.801224e+00
4.811038e+00
4.821102e+00
4.831307e+00
4.841563e+00
4.851779e+00
4.861838e+00
4.871644e+00
4.881130e+00
4.890175e+00
4.898706e+00
4.906638e+00
4.913891e+00
4.920391e+00
4.926096e+00
4.930930e+00
4.934847e+00
4.937835e+00
4.939837e+00
4.940842e+00
4.940843e+00
4.939837e+00
4.937838e+00
4.934855e+00
4.930925e+00
4.926097e+00
4.920399e+00
4.913868e+00
4.906635e+00
4.898706e+00
4.890175e+00
4.881133e+00
4.871653e+00
4.861842e+00
4.851779e+00
4.841569e+00
4.841591e+00
4.831534e+00
4.821625e+00
4.811949e+00
4.802615e+00
4.793701e+00
4.785303e+00
4.777494e+00
4.770348e+00
4.763934e+00
4.758317e+00
4.753553e+00
4.749687e+00
4.746761e+00
4.744786e+00
4.743796e+00
4.743791e+00
4.744781e+00
4.746757e+00
4.749693e+00
4.753561e+00
4.758321e+00
4.763931e+00
4.770344e+00
4.777491e+00
4.785299e+00
4.793694e+00
4.802617e+00
4.811969e+00
4.821618e+00
4.831532e+00
4.841594e+00
4.851695e+00
4.861752e+00
4.871661e+00